 Entering Gaussian System, Link 0=g16
 Initial command:
 /appl/Gaussian16/AVX_revB01/g16/l1.exe "/home/junhkim/WORK/Review_DD/TADF-Design/data/td_dft/results/mol_595/Gau-1379261.inp" -scrdir="/home/junhkim/WORK/Review_DD/TADF-Design/data/td_dft/results/mol_595/"
 Entering Link 1 = /appl/Gaussian16/AVX_revB01/g16/l1.exe PID=   1379263.
  
 Copyright (c) 1988-2017, Gaussian, Inc.  All Rights Reserved.
  
 This is part of the Gaussian(R) 16 program.  It is based on
 the Gaussian(R) 09 system (copyright 2009, Gaussian, Inc.),
 the Gaussian(R) 03 system (copyright 2003, Gaussian, Inc.),
 the Gaussian(R) 98 system (copyright 1998, Gaussian, Inc.),
 the Gaussian(R) 94 system (copyright 1995, Gaussian, Inc.),
 the Gaussian 92(TM) system (copyright 1992, Gaussian, Inc.),
 the Gaussian 90(TM) system (copyright 1990, Gaussian, Inc.),
 the Gaussian 88(TM) system (copyright 1988, Gaussian, Inc.),
 the Gaussian 86(TM) system (copyright 1986, Carnegie Mellon
 University), and the Gaussian 82(TM) system (copyright 1983,
 Carnegie Mellon University). Gaussian is a federally registered
 trademark of Gaussian, Inc.
  
 This software contains proprietary and confidential information,
 including trade secrets, belonging to Gaussian, Inc.
  
 This software is provided under written license and may be
 used, copied, transmitted, or stored only in accord with that
 written license.
  
 The following legend is applicable only to US Government
 contracts under FAR:
  
                    RESTRICTED RIGHTS LEGEND
  
 Use, reproduction and disclosure by the US Government is
 subject to restrictions as set forth in subparagraphs (a)
 and (c) of the Commercial Computer Software - Restricted
 Rights clause in FAR 52.227-19.
  
 Gaussian, Inc.
 340 Quinnipiac St., Bldg. 40, Wallingford CT 06492
  
  
 ---------------------------------------------------------------
 Warning -- This program may not be used in any manner that
 competes with the business of Gaussian, Inc. or will provide
 assistance to any competitor of Gaussian, Inc.  The licensee
 of this program is prohibited from giving any competitor of
 Gaussian, Inc. access to this program.  By using this program,
 the user acknowledges that Gaussian, Inc. is engaged in the
 business of creating and licensing software in the field of
 computational chemistry and represents and warrants to the
 licensee that it is not a competitor of Gaussian, Inc. and that
 it will not use this program in any manner prohibited above.
 ---------------------------------------------------------------
  

 Cite this work as:
 Gaussian 16, Revision B.01,
 M. J. Frisch, G. W. Trucks, H. B. Schlegel, G. E. Scuseria, 
 M. A. Robb, J. R. Cheeseman, G. Scalmani, V. Barone, 
 G. A. Petersson, H. Nakatsuji, X. Li, M. Caricato, A. V. Marenich, 
 J. Bloino, B. G. Janesko, R. Gomperts, B. Mennucci, H. P. Hratchian, 
 J. V. Ortiz, A. F. Izmaylov, J. L. Sonnenberg, D. Williams-Young, 
 F. Ding, F. Lipparini, F. Egidi, J. Goings, B. Peng, A. Petrone, 
 T. Henderson, D. Ranasinghe, V. G. Zakrzewski, J. Gao, N. Rega, 
 G. Zheng, W. Liang, M. Hada, M. Ehara, K. Toyota, R. Fukuda, 
 J. Hasegawa, M. Ishida, T. Nakajima, Y. Honda, O. Kitao, H. Nakai, 
 T. Vreven, K. Throssell, J. A. Montgomery, Jr., J. E. Peralta, 
 F. Ogliaro, M. J. Bearpark, J. J. Heyd, E. N. Brothers, K. N. Kudin, 
 V. N. Staroverov, T. A. Keith, R. Kobayashi, J. Normand, 
 K. Raghavachari, A. P. Rendell, J. C. Burant, S. S. Iyengar, 
 J. Tomasi, M. Cossi, J. M. Millam, M. Klene, C. Adamo, R. Cammi, 
 J. W. Ochterski, R. L. Martin, K. Morokuma, O. Farkas, 
 J. B. Foresman, and D. J. Fox, Gaussian, Inc., Wallingford CT, 2016.
 
 ******************************************
 Gaussian 16:  ES64L-G16RevB.01 20-Dec-2017
                19-Jan-2026 
 ******************************************
 %mem=60GB
 %chk=opt.chk
 %nprocshared=16
 Will use up to   16 processors via shared memory.
 ---------------------------
 #P b3lyp/6-31g* opt SCF=XQC
 ---------------------------
 1/18=20,19=15,26=3,38=1/1,3;
 2/9=110,12=2,17=6,18=5,40=1/2;
 3/5=1,6=6,7=1,11=2,25=1,30=1,71=1,74=-5/1,2,3;
 4//1;
 5/5=2,8=3,13=1,38=5/2,8;
 6/7=2,8=2,9=2,10=2,28=1/1;
 7//1,2,3,16;
 1/18=20,19=15,26=3/3(2);
 2/9=110/2;
 99//99;
 2/9=110/2;
 3/5=1,6=6,7=1,11=2,25=1,30=1,71=1,74=-5/1,2,3;
 4/5=5,16=3,69=1/1;
 5/5=2,8=3,13=1,38=5/2,8;
 7//1,2,3,16;
 1/18=20,19=15,26=3/3(-5);
 2/9=110/2;
 6/7=2,8=2,9=2,10=2,19=2,28=1/1;
 99/9=1/99;
 Leave Link    1 at Mon Jan 19 14:37:00 2026, MaxMem=  8053063680 cpu:               2.4 elap:               0.2
 (Enter /appl/Gaussian16/AVX_revB01/g16/l101.exe)
 ------------------------------
 Gaussian input prepared by ASE
 ------------------------------
 Symbolic Z-matrix:
 Charge =  0 Multiplicity = 1
 C                    -3.13864  -0.25285   1.87584 
 C                    -2.58241   0.11185   0.48762 
 C                    -3.7251    0.51452  -0.4623 
 C                    -1.88339  -1.10338  -0.09123 
 C                    -2.58899  -2.28641  -0.26148 
 C                    -2.00351  -3.42176  -0.79092 
 C                    -0.67296  -3.38703  -1.16472 
 C                     0.05082  -2.22322  -1.01026 
 C                    -0.54141  -1.07634  -0.47824 
 N                     0.20701   0.08436  -0.34713 
 C                     1.53384   0.09524  -0.82327 
 C                     1.82277   0.46157  -2.12824 
 C                     0.78874   0.83441  -3.01583 
 N                    -0.04487   1.13784  -3.74077 
 C                     3.17381   0.45689  -2.56106 
 N                     4.17216   0.12639  -1.80139 
 C                     3.92559  -0.23542  -0.52538 
 C                     4.99359  -0.59939   0.32164 
 C                     4.71497  -0.96209   1.61123 
 C                     3.37494  -0.95944   2.04707 
 N                     2.36507  -0.62994   1.29454 
 C                     2.6125   -0.26919   0.02174 
 C                    -0.30866   1.23903   0.22328 
 C                     0.51137   2.3583    0.37787 
 C                     0.02175   3.52385   0.92915 
 C                    -1.29873   3.58937   1.33332 
 C                    -2.10989   2.47968   1.18256 
 C                    -1.64249   1.29309   0.63486 
 H                    -2.32158  -0.53528   2.53691 
 H                    -3.83188  -1.08656   1.81048 
 H                    -3.66342   0.5891    2.31818 
 H                    -3.31917   0.76975  -1.43936 
 H                    -4.4312   -0.30203  -0.58623 
 H                    -4.26242   1.37703  -0.0775 
 H                    -3.62966  -2.32856   0.02214 
 H                    -2.58287  -4.32437  -0.91079 
 H                    -0.19543  -4.2625   -1.57881 
 H                     1.0906   -2.20511  -1.30376 
 H                     3.41088   0.74112  -3.57786 
 H                     5.99715  -0.58018  -0.07471 
 H                     5.49969  -1.24792   2.29431 
 H                     3.1289   -1.24223   3.06212 
 H                     1.545     2.31523   0.06583 
 H                     0.67314   4.37799   1.0391 
 H                    -1.69616   4.49665   1.76183 
 H                    -3.13946   2.54793   1.49962 
 
 ITRead=  0  0  0  0  0  0  0  0  0  0  0  0  0  0  0  0  0  0  0  0
 ITRead=  0  0  0  0  0  0  0  0  0  0  0  0  0  0  0  0  0  0  0  0
 ITRead=  0  0  0  0  0  0
 MicOpt= -1 -1 -1 -1 -1 -1 -1 -1 -1 -1 -1 -1 -1 -1 -1 -1 -1 -1 -1 -1
 MicOpt= -1 -1 -1 -1 -1 -1 -1 -1 -1 -1 -1 -1 -1 -1 -1 -1 -1 -1 -1 -1
 MicOpt= -1 -1 -1 -1 -1 -1
 NAtoms=     46 NQM=       46 NQMF=       0 NMMI=      0 NMMIF=      0
                NMic=       0 NMicF=      0.
                    Isotopes and Nuclear Properties:
 (Nuclear quadrupole moments (NQMom) in fm**2, nuclear magnetic moments (NMagM)
  in nuclear magnetons)

  Atom         1           2           3           4           5           6           7           8           9          10
 IAtWgt=          12          12          12          12          12          12          12          12          12          14
 AtmWgt=  12.0000000  12.0000000  12.0000000  12.0000000  12.0000000  12.0000000  12.0000000  12.0000000  12.0000000  14.0030740
 NucSpn=           0           0           0           0           0           0           0           0           0           2
 AtZEff=  -0.0000000  -0.0000000  -0.0000000  -0.0000000  -0.0000000  -0.0000000  -0.0000000  -0.0000000  -0.0000000  -0.0000000
 NQMom=    0.0000000   0.0000000   0.0000000   0.0000000   0.0000000   0.0000000   0.0000000   0.0000000   0.0000000   2.0440000
 NMagM=    0.0000000   0.0000000   0.0000000   0.0000000   0.0000000   0.0000000   0.0000000   0.0000000   0.0000000   0.4037610
 AtZNuc=   6.0000000   6.0000000   6.0000000   6.0000000   6.0000000   6.0000000   6.0000000   6.0000000   6.0000000   7.0000000

  Atom        11          12          13          14          15          16          17          18          19          20
 IAtWgt=          12          12          12          14          12          14          12          12          12          12
 AtmWgt=  12.0000000  12.0000000  12.0000000  14.0030740  12.0000000  14.0030740  12.0000000  12.0000000  12.0000000  12.0000000
 NucSpn=           0           0           0           2           0           2           0           0           0           0
 AtZEff=  -0.0000000  -0.0000000  -0.0000000  -0.0000000  -0.0000000  -0.0000000  -0.0000000  -0.0000000  -0.0000000  -0.0000000
 NQMom=    0.0000000   0.0000000   0.0000000   2.0440000   0.0000000   2.0440000   0.0000000   0.0000000   0.0000000   0.0000000
 NMagM=    0.0000000   0.0000000   0.0000000   0.4037610   0.0000000   0.4037610   0.0000000   0.0000000   0.0000000   0.0000000
 AtZNuc=   6.0000000   6.0000000   6.0000000   7.0000000   6.0000000   7.0000000   6.0000000   6.0000000   6.0000000   6.0000000

  Atom        21          22          23          24          25          26          27          28          29          30
 IAtWgt=          14          12          12          12          12          12          12          12           1           1
 AtmWgt=  14.0030740  12.0000000  12.0000000  12.0000000  12.0000000  12.0000000  12.0000000  12.0000000   1.0078250   1.0078250
 NucSpn=           2           0           0           0           0           0           0           0           1           1
 AtZEff=  -0.0000000  -0.0000000  -0.0000000  -0.0000000  -0.0000000  -0.0000000  -0.0000000  -0.0000000  -0.0000000  -0.0000000
 NQMom=    2.0440000   0.0000000   0.0000000   0.0000000   0.0000000   0.0000000   0.0000000   0.0000000   0.0000000   0.0000000
 NMagM=    0.4037610   0.0000000   0.0000000   0.0000000   0.0000000   0.0000000   0.0000000   0.0000000   2.7928460   2.7928460
 AtZNuc=   7.0000000   6.0000000   6.0000000   6.0000000   6.0000000   6.0000000   6.0000000   6.0000000   1.0000000   1.0000000

  Atom        31          32          33          34          35          36          37          38          39          40
 IAtWgt=           1           1           1           1           1           1           1           1           1           1
 AtmWgt=   1.0078250   1.0078250   1.0078250   1.0078250   1.0078250   1.0078250   1.0078250   1.0078250   1.0078250   1.0078250
 NucSpn=           1           1           1           1           1           1           1           1           1           1
 AtZEff=  -0.0000000  -0.0000000  -0.0000000  -0.0000000  -0.0000000  -0.0000000  -0.0000000  -0.0000000  -0.0000000  -0.0000000
 NQMom=    0.0000000   0.0000000   0.0000000   0.0000000   0.0000000   0.0000000   0.0000000   0.0000000   0.0000000   0.0000000
 NMagM=    2.7928460   2.7928460   2.7928460   2.7928460   2.7928460   2.7928460   2.7928460   2.7928460   2.7928460   2.7928460
 AtZNuc=   1.0000000   1.0000000   1.0000000   1.0000000   1.0000000   1.0000000   1.0000000   1.0000000   1.0000000   1.0000000

  Atom        41          42          43          44          45          46
 IAtWgt=           1           1           1           1           1           1
 AtmWgt=   1.0078250   1.0078250   1.0078250   1.0078250   1.0078250   1.0078250
 NucSpn=           1           1           1           1           1           1
 AtZEff=  -0.0000000  -0.0000000  -0.0000000  -0.0000000  -0.0000000  -0.0000000
 NQMom=    0.0000000   0.0000000   0.0000000   0.0000000   0.0000000   0.0000000
 NMagM=    2.7928460   2.7928460   2.7928460   2.7928460   2.7928460   2.7928460
 AtZNuc=   1.0000000   1.0000000   1.0000000   1.0000000   1.0000000   1.0000000
 Leave Link  101 at Mon Jan 19 14:37:01 2026, MaxMem=  8053063680 cpu:              11.3 elap:               0.9
 (Enter /appl/Gaussian16/AVX_revB01/g16/l103.exe)

 GradGradGradGradGradGradGradGradGradGradGradGradGradGradGradGradGradGrad
 Berny optimization.
 Initialization pass.
                           ----------------------------
                           !    Initial Parameters    !
                           ! (Angstroms and Degrees)  !
 --------------------------                            --------------------------
 ! Name  Definition              Value          Derivative Info.                !
 --------------------------------------------------------------------------------
 ! R1    R(1,2)                  1.5393         estimate D2E/DX2                !
 ! R2    R(1,29)                 1.0883         estimate D2E/DX2                !
 ! R3    R(1,30)                 1.0862         estimate D2E/DX2                !
 ! R4    R(1,31)                 1.0862         estimate D2E/DX2                !
 ! R5    R(2,3)                  1.5396         estimate D2E/DX2                !
 ! R6    R(2,4)                  1.5167         estimate D2E/DX2                !
 ! R7    R(2,28)                 1.5167         estimate D2E/DX2                !
 ! R8    R(3,32)                 1.0884         estimate D2E/DX2                !
 ! R9    R(3,33)                 1.0866         estimate D2E/DX2                !
 ! R10   R(3,34)                 1.0866         estimate D2E/DX2                !
 ! R11   R(4,5)                  1.388          estimate D2E/DX2                !
 ! R12   R(4,9)                  1.3969         estimate D2E/DX2                !
 ! R13   R(5,6)                  1.3828         estimate D2E/DX2                !
 ! R14   R(5,35)                 1.0794         estimate D2E/DX2                !
 ! R15   R(6,7)                  1.3825         estimate D2E/DX2                !
 ! R16   R(6,36)                 1.0792         estimate D2E/DX2                !
 ! R17   R(7,8)                  1.3792         estimate D2E/DX2                !
 ! R18   R(7,37)                 1.0798         estimate D2E/DX2                !
 ! R19   R(8,9)                  1.3961         estimate D2E/DX2                !
 ! R20   R(8,38)                 1.0806         estimate D2E/DX2                !
 ! R21   R(9,10)                 1.3873         estimate D2E/DX2                !
 ! R22   R(10,11)                1.4097         estimate D2E/DX2                !
 ! R23   R(10,23)                1.3873         estimate D2E/DX2                !
 ! R24   R(11,12)                1.3859         estimate D2E/DX2                !
 ! R25   R(11,22)                1.4179         estimate D2E/DX2                !
 ! R26   R(12,13)                1.4128         estimate D2E/DX2                !
 ! R27   R(12,15)                1.4187         estimate D2E/DX2                !
 ! R28   R(13,14)                1.1457         estimate D2E/DX2                !
 ! R29   R(15,16)                1.2973         estimate D2E/DX2                !
 ! R30   R(15,39)                1.0821         estimate D2E/DX2                !
 ! R31   R(16,17)                1.349          estimate D2E/DX2                !
 ! R32   R(17,18)                1.4109         estimate D2E/DX2                !
 ! R33   R(17,22)                1.4229         estimate D2E/DX2                !
 ! R34   R(18,19)                1.3683         estimate D2E/DX2                !
 ! R35   R(18,40)                1.0792         estimate D2E/DX2                !
 ! R36   R(19,20)                1.4091         estimate D2E/DX2                !
 ! R37   R(19,41)                1.0789         estimate D2E/DX2                !
 ! R38   R(20,21)                1.3018         estimate D2E/DX2                !
 ! R39   R(20,42)                1.082          estimate D2E/DX2                !
 ! R40   R(21,22)                1.3459         estimate D2E/DX2                !
 ! R41   R(23,24)                1.3961         estimate D2E/DX2                !
 ! R42   R(23,28)                1.3969         estimate D2E/DX2                !
 ! R43   R(24,25)                1.3792         estimate D2E/DX2                !
 ! R44   R(24,43)                1.0806         estimate D2E/DX2                !
 ! R45   R(25,26)                1.3825         estimate D2E/DX2                !
 ! R46   R(25,44)                1.0798         estimate D2E/DX2                !
 ! R47   R(26,27)                1.3828         estimate D2E/DX2                !
 ! R48   R(26,45)                1.0792         estimate D2E/DX2                !
 ! R49   R(27,28)                1.388          estimate D2E/DX2                !
 ! R50   R(27,46)                1.0794         estimate D2E/DX2                !
 ! A1    A(2,1,29)             109.755          estimate D2E/DX2                !
 ! A2    A(2,1,30)             110.9882         estimate D2E/DX2                !
 ! A3    A(2,1,31)             110.9882         estimate D2E/DX2                !
 ! A4    A(29,1,30)            108.452          estimate D2E/DX2                !
 ! A5    A(29,1,31)            108.452          estimate D2E/DX2                !
 ! A6    A(30,1,31)            108.1249         estimate D2E/DX2                !
 ! A7    A(1,2,3)              110.4999         estimate D2E/DX2                !
 ! A8    A(1,2,4)              108.7169         estimate D2E/DX2                !
 ! A9    A(1,2,28)             108.7169         estimate D2E/DX2                !
 ! A10   A(3,2,4)              108.4304         estimate D2E/DX2                !
 ! A11   A(3,2,28)             108.4304         estimate D2E/DX2                !
 ! A12   A(4,2,28)             112.0514         estimate D2E/DX2                !
 ! A13   A(2,3,32)             109.7799         estimate D2E/DX2                !
 ! A14   A(2,3,33)             110.8627         estimate D2E/DX2                !
 ! A15   A(2,3,34)             110.8627         estimate D2E/DX2                !
 ! A16   A(32,3,33)            108.4338         estimate D2E/DX2                !
 ! A17   A(32,3,34)            108.4338         estimate D2E/DX2                !
 ! A18   A(33,3,34)            108.3939         estimate D2E/DX2                !
 ! A19   A(2,4,5)              119.6986         estimate D2E/DX2                !
 ! A20   A(2,4,9)              122.2064         estimate D2E/DX2                !
 ! A21   A(5,4,9)              118.0919         estimate D2E/DX2                !
 ! A22   A(4,5,6)              122.1101         estimate D2E/DX2                !
 ! A23   A(4,5,35)             119.4167         estimate D2E/DX2                !
 ! A24   A(6,5,35)             118.4727         estimate D2E/DX2                !
 ! A25   A(5,6,7)              119.3662         estimate D2E/DX2                !
 ! A26   A(5,6,36)             120.1267         estimate D2E/DX2                !
 ! A27   A(7,6,36)             120.507          estimate D2E/DX2                !
 ! A28   A(6,7,8)              119.7348         estimate D2E/DX2                !
 ! A29   A(6,7,37)             120.5933         estimate D2E/DX2                !
 ! A30   A(8,7,37)             119.6718         estimate D2E/DX2                !
 ! A31   A(7,8,9)              120.8815         estimate D2E/DX2                !
 ! A32   A(7,8,38)             119.2555         estimate D2E/DX2                !
 ! A33   A(9,8,38)             119.8628         estimate D2E/DX2                !
 ! A34   A(4,9,8)              119.8142         estimate D2E/DX2                !
 ! A35   A(4,9,10)             120.5486         estimate D2E/DX2                !
 ! A36   A(8,9,10)             119.6356         estimate D2E/DX2                !
 ! A37   A(9,10,11)            118.8359         estimate D2E/DX2                !
 ! A38   A(9,10,23)            122.3247         estimate D2E/DX2                !
 ! A39   A(11,10,23)           118.8359         estimate D2E/DX2                !
 ! A40   A(10,11,12)           121.0846         estimate D2E/DX2                !
 ! A41   A(10,11,22)           120.8479         estimate D2E/DX2                !
 ! A42   A(12,11,22)           118.0675         estimate D2E/DX2                !
 ! A43   A(11,12,13)           120.58           estimate D2E/DX2                !
 ! A44   A(11,12,15)           119.0089         estimate D2E/DX2                !
 ! A45   A(13,12,15)           120.4111         estimate D2E/DX2                !
 ! A46   A(12,15,16)           123.7143         estimate D2E/DX2                !
 ! A47   A(12,15,39)           119.6344         estimate D2E/DX2                !
 ! A48   A(16,15,39)           116.6512         estimate D2E/DX2                !
 ! A49   A(15,16,17)           118.7862         estimate D2E/DX2                !
 ! A50   A(16,17,18)           119.9136         estimate D2E/DX2                !
 ! A51   A(16,17,22)           122.5968         estimate D2E/DX2                !
 ! A52   A(18,17,22)           117.4896         estimate D2E/DX2                !
 ! A53   A(17,18,19)           118.6899         estimate D2E/DX2                !
 ! A54   A(17,18,40)           118.6111         estimate D2E/DX2                !
 ! A55   A(19,18,40)           122.699          estimate D2E/DX2                !
 ! A56   A(18,19,20)           118.9899         estimate D2E/DX2                !
 ! A57   A(18,19,41)           121.2531         estimate D2E/DX2                !
 ! A58   A(20,19,41)           119.7571         estimate D2E/DX2                !
 ! A59   A(19,20,21)           124.013          estimate D2E/DX2                !
 ! A60   A(19,20,42)           120.3911         estimate D2E/DX2                !
 ! A61   A(21,20,42)           115.5959         estimate D2E/DX2                !
 ! A62   A(20,21,22)           118.1578         estimate D2E/DX2                !
 ! A63   A(11,22,17)           117.8262         estimate D2E/DX2                !
 ! A64   A(11,22,21)           119.514          estimate D2E/DX2                !
 ! A65   A(17,22,21)           122.6598         estimate D2E/DX2                !
 ! A66   A(10,23,24)           119.6357         estimate D2E/DX2                !
 ! A67   A(10,23,28)           120.5486         estimate D2E/DX2                !
 ! A68   A(24,23,28)           119.8142         estimate D2E/DX2                !
 ! A69   A(23,24,25)           120.8815         estimate D2E/DX2                !
 ! A70   A(23,24,43)           119.8628         estimate D2E/DX2                !
 ! A71   A(25,24,43)           119.2555         estimate D2E/DX2                !
 ! A72   A(24,25,26)           119.7348         estimate D2E/DX2                !
 ! A73   A(24,25,44)           119.6717         estimate D2E/DX2                !
 ! A74   A(26,25,44)           120.5933         estimate D2E/DX2                !
 ! A75   A(25,26,27)           119.3662         estimate D2E/DX2                !
 ! A76   A(25,26,45)           120.5071         estimate D2E/DX2                !
 ! A77   A(27,26,45)           120.1267         estimate D2E/DX2                !
 ! A78   A(26,27,28)           122.1101         estimate D2E/DX2                !
 ! A79   A(26,27,46)           118.4727         estimate D2E/DX2                !
 ! A80   A(28,27,46)           119.4167         estimate D2E/DX2                !
 ! A81   A(2,28,23)            122.2064         estimate D2E/DX2                !
 ! A82   A(2,28,27)            119.6986         estimate D2E/DX2                !
 ! A83   A(23,28,27)           118.0919         estimate D2E/DX2                !
 ! A84   L(12,13,14,1,-1)      180.3608         estimate D2E/DX2                !
 ! A85   L(12,13,14,1,-2)      180.0            estimate D2E/DX2                !
 ! D1    D(29,1,2,3)           179.9996         estimate D2E/DX2                !
 ! D2    D(29,1,2,4)            61.1149         estimate D2E/DX2                !
 ! D3    D(29,1,2,28)          -61.1157         estimate D2E/DX2                !
 ! D4    D(30,1,2,3)            60.1335         estimate D2E/DX2                !
 ! D5    D(30,1,2,4)           -58.7512         estimate D2E/DX2                !
 ! D6    D(30,1,2,28)          179.0183         estimate D2E/DX2                !
 ! D7    D(31,1,2,3)           -60.1343         estimate D2E/DX2                !
 ! D8    D(31,1,2,4)          -179.0191         estimate D2E/DX2                !
 ! D9    D(31,1,2,28)           58.7504         estimate D2E/DX2                !
 ! D10   D(1,2,3,32)           179.9999         estimate D2E/DX2                !
 ! D11   D(1,2,3,33)           -60.22           estimate D2E/DX2                !
 ! D12   D(1,2,3,34)            60.2198         estimate D2E/DX2                !
 ! D13   D(4,2,3,32)           -60.9415         estimate D2E/DX2                !
 ! D14   D(4,2,3,33)            58.8385         estimate D2E/DX2                !
 ! D15   D(4,2,3,34)           179.2783         estimate D2E/DX2                !
 ! D16   D(28,2,3,32)           60.9413         estimate D2E/DX2                !
 ! D17   D(28,2,3,33)         -179.2786         estimate D2E/DX2                !
 ! D18   D(28,2,3,34)          -58.8389         estimate D2E/DX2                !
 ! D19   D(1,2,4,5)             58.1619         estimate D2E/DX2                !
 ! D20   D(1,2,4,9)           -122.4962         estimate D2E/DX2                !
 ! D21   D(3,2,4,5)            -62.014          estimate D2E/DX2                !
 ! D22   D(3,2,4,9)            117.3278         estimate D2E/DX2                !
 ! D23   D(28,2,4,5)           178.3469         estimate D2E/DX2                !
 ! D24   D(28,2,4,9)            -2.3113         estimate D2E/DX2                !
 ! D25   D(1,2,28,23)          122.4962         estimate D2E/DX2                !
 ! D26   D(1,2,28,27)          -58.1621         estimate D2E/DX2                !
 ! D27   D(3,2,28,23)         -117.3278         estimate D2E/DX2                !
 ! D28   D(3,2,28,27)           62.0139         estimate D2E/DX2                !
 ! D29   D(4,2,28,23)            2.3113         estimate D2E/DX2                !
 ! D30   D(4,2,28,27)         -178.347          estimate D2E/DX2                !
 ! D31   D(2,4,5,6)            179.6478         estimate D2E/DX2                !
 ! D32   D(2,4,5,35)            -0.0877         estimate D2E/DX2                !
 ! D33   D(9,4,5,6)              0.2791         estimate D2E/DX2                !
 ! D34   D(9,4,5,35)          -179.4565         estimate D2E/DX2                !
 ! D35   D(2,4,9,8)           -179.7565         estimate D2E/DX2                !
 ! D36   D(2,4,9,10)            -0.2041         estimate D2E/DX2                !
 ! D37   D(5,4,9,8)             -0.4046         estimate D2E/DX2                !
 ! D38   D(5,4,9,10)           179.1478         estimate D2E/DX2                !
 ! D39   D(4,5,6,7)              0.0409         estimate D2E/DX2                !
 ! D40   D(4,5,6,36)          -179.8955         estimate D2E/DX2                !
 ! D41   D(35,5,6,7)           179.7789         estimate D2E/DX2                !
 ! D42   D(35,5,6,36)           -0.1575         estimate D2E/DX2                !
 ! D43   D(5,6,7,8)             -0.2352         estimate D2E/DX2                !
 ! D44   D(5,6,7,37)           179.9037         estimate D2E/DX2                !
 ! D45   D(36,6,7,8)           179.701          estimate D2E/DX2                !
 ! D46   D(36,6,7,37)           -0.1601         estimate D2E/DX2                !
 ! D47   D(6,7,8,9)              0.1053         estimate D2E/DX2                !
 ! D48   D(6,7,8,38)           179.92           estimate D2E/DX2                !
 ! D49   D(37,7,8,9)           179.9677         estimate D2E/DX2                !
 ! D50   D(37,7,8,38)           -0.2176         estimate D2E/DX2                !
 ! D51   D(7,8,9,4)              0.2209         estimate D2E/DX2                !
 ! D52   D(7,8,9,10)          -179.3356         estimate D2E/DX2                !
 ! D53   D(38,8,9,4)          -179.5927         estimate D2E/DX2                !
 ! D54   D(38,8,9,10)            0.8508         estimate D2E/DX2                !
 ! D55   D(4,9,10,11)         -176.2067         estimate D2E/DX2                !
 ! D56   D(4,9,10,23)            3.1015         estimate D2E/DX2                !
 ! D57   D(8,9,10,11)            3.3465         estimate D2E/DX2                !
 ! D58   D(8,9,10,23)         -177.3452         estimate D2E/DX2                !
 ! D59   D(9,10,11,12)          89.6654         estimate D2E/DX2                !
 ! D60   D(9,10,11,22)         -90.3346         estimate D2E/DX2                !
 ! D61   D(23,10,11,12)        -89.6673         estimate D2E/DX2                !
 ! D62   D(23,10,11,22)         90.3327         estimate D2E/DX2                !
 ! D63   D(9,10,23,24)         177.3455         estimate D2E/DX2                !
 ! D64   D(9,10,23,28)          -3.1016         estimate D2E/DX2                !
 ! D65   D(11,10,23,24)         -3.3463         estimate D2E/DX2                !
 ! D66   D(11,10,23,28)        176.2067         estimate D2E/DX2                !
 ! D67   D(10,11,12,13)          0.0            estimate D2E/DX2                !
 ! D68   D(10,11,12,15)        179.9999         estimate D2E/DX2                !
 ! D69   D(22,11,12,13)       -180.0            estimate D2E/DX2                !
 ! D70   D(22,11,12,15)         -0.0001         estimate D2E/DX2                !
 ! D71   D(10,11,22,17)       -180.0            estimate D2E/DX2                !
 ! D72   D(10,11,22,21)          0.0001         estimate D2E/DX2                !
 ! D73   D(12,11,22,17)          0.0            estimate D2E/DX2                !
 ! D74   D(12,11,22,21)       -179.9999         estimate D2E/DX2                !
 ! D75   D(11,12,15,16)          0.0001         estimate D2E/DX2                !
 ! D76   D(11,12,15,39)       -179.9999         estimate D2E/DX2                !
 ! D77   D(13,12,15,16)        180.0            estimate D2E/DX2                !
 ! D78   D(13,12,15,39)          0.0            estimate D2E/DX2                !
 ! D79   D(12,15,16,17)          0.0            estimate D2E/DX2                !
 ! D80   D(39,15,16,17)        180.0            estimate D2E/DX2                !
 ! D81   D(15,16,17,18)        180.0            estimate D2E/DX2                !
 ! D82   D(15,16,17,22)         -0.0001         estimate D2E/DX2                !
 ! D83   D(16,17,18,19)        180.0            estimate D2E/DX2                !
 ! D84   D(16,17,18,40)          0.0            estimate D2E/DX2                !
 ! D85   D(22,17,18,19)          0.0            estimate D2E/DX2                !
 ! D86   D(22,17,18,40)       -180.0            estimate D2E/DX2                !
 ! D87   D(16,17,22,11)          0.0001         estimate D2E/DX2                !
 ! D88   D(16,17,22,21)       -180.0            estimate D2E/DX2                !
 ! D89   D(18,17,22,11)       -180.0            estimate D2E/DX2                !
 ! D90   D(18,17,22,21)          0.0            estimate D2E/DX2                !
 ! D91   D(17,18,19,20)          0.0            estimate D2E/DX2                !
 ! D92   D(17,18,19,41)       -180.0            estimate D2E/DX2                !
 ! D93   D(40,18,19,20)        180.0            estimate D2E/DX2                !
 ! D94   D(40,18,19,41)          0.0            estimate D2E/DX2                !
 ! D95   D(18,19,20,21)          0.0            estimate D2E/DX2                !
 ! D96   D(18,19,20,42)        180.0            estimate D2E/DX2                !
 ! D97   D(41,19,20,21)        180.0            estimate D2E/DX2                !
 ! D98   D(41,19,20,42)          0.0            estimate D2E/DX2                !
 ! D99   D(19,20,21,22)          0.0            estimate D2E/DX2                !
 ! D100  D(42,20,21,22)       -180.0            estimate D2E/DX2                !
 ! D101  D(20,21,22,11)        179.9999         estimate D2E/DX2                !
 ! D102  D(20,21,22,17)          0.0            estimate D2E/DX2                !
 ! D103  D(10,23,24,25)        179.3355         estimate D2E/DX2                !
 ! D104  D(10,23,24,43)         -0.8508         estimate D2E/DX2                !
 ! D105  D(28,23,24,25)         -0.2208         estimate D2E/DX2                !
 ! D106  D(28,23,24,43)        179.5929         estimate D2E/DX2                !
 ! D107  D(10,23,28,2)           0.2042         estimate D2E/DX2                !
 ! D108  D(10,23,28,27)       -179.1476         estimate D2E/DX2                !
 ! D109  D(24,23,28,2)         179.7564         estimate D2E/DX2                !
 ! D110  D(24,23,28,27)          0.4045         estimate D2E/DX2                !
 ! D111  D(23,24,25,26)         -0.1054         estimate D2E/DX2                !
 ! D112  D(23,24,25,44)       -179.9677         estimate D2E/DX2                !
 ! D113  D(43,24,25,26)       -179.9202         estimate D2E/DX2                !
 ! D114  D(43,24,25,44)          0.2175         estimate D2E/DX2                !
 ! D115  D(24,25,26,27)          0.2352         estimate D2E/DX2                !
 ! D116  D(24,25,26,45)       -179.7009         estimate D2E/DX2                !
 ! D117  D(44,25,26,27)       -179.9038         estimate D2E/DX2                !
 ! D118  D(44,25,26,45)          0.1601         estimate D2E/DX2                !
 ! D119  D(25,26,27,28)         -0.0408         estimate D2E/DX2                !
 ! D120  D(25,26,27,46)       -179.7788         estimate D2E/DX2                !
 ! D121  D(45,26,27,28)        179.8955         estimate D2E/DX2                !
 ! D122  D(45,26,27,46)          0.1575         estimate D2E/DX2                !
 ! D123  D(26,27,28,2)        -179.6478         estimate D2E/DX2                !
 ! D124  D(26,27,28,23)         -0.2791         estimate D2E/DX2                !
 ! D125  D(46,27,28,2)           0.0878         estimate D2E/DX2                !
 ! D126  D(46,27,28,23)        179.4564         estimate D2E/DX2                !
 --------------------------------------------------------------------------------
 Trust Radius=3.00D-01 FncErr=1.00D-07 GrdErr=1.00D-06 EigMax=2.50D+02 EigMin=1.00D-04
 Number of steps in this run=    271 maximum allowed number of steps=    276.
 GradGradGradGradGradGradGradGradGradGradGradGradGradGradGradGradGradGrad

 Leave Link  103 at Mon Jan 19 14:37:01 2026, MaxMem=  8053063680 cpu:               0.2 elap:               0.1
 (Enter /appl/Gaussian16/AVX_revB01/g16/l202.exe)
                          Input orientation:                          
 ---------------------------------------------------------------------
 Center     Atomic      Atomic             Coordinates (Angstroms)
 Number     Number       Type             X           Y           Z
 ---------------------------------------------------------------------
      1          6           0       -3.138643   -0.252848    1.875844
      2          6           0       -2.582408    0.111847    0.487619
      3          6           0       -3.725100    0.514524   -0.462303
      4          6           0       -1.883389   -1.103376   -0.091229
      5          6           0       -2.588994   -2.286413   -0.261484
      6          6           0       -2.003510   -3.421763   -0.790925
      7          6           0       -0.672955   -3.387029   -1.164719
      8          6           0        0.050819   -2.223224   -1.010256
      9          6           0       -0.541410   -1.076342   -0.478245
     10          7           0        0.207006    0.084360   -0.347131
     11          6           0        1.533835    0.095244   -0.823265
     12          6           0        1.822765    0.461566   -2.128242
     13          6           0        0.788740    0.834412   -3.015827
     14          7           0       -0.044871    1.137838   -3.740770
     15          6           0        3.173806    0.456892   -2.561056
     16          7           0        4.172159    0.126387   -1.801389
     17          6           0        3.925595   -0.235417   -0.525384
     18          6           0        4.993588   -0.599389    0.321636
     19          6           0        4.714970   -0.962087    1.611226
     20          6           0        3.374945   -0.959439    2.047074
     21          7           0        2.365067   -0.629935    1.294540
     22          6           0        2.612503   -0.269189    0.021739
     23          6           0       -0.308661    1.239035    0.223276
     24          6           0        0.511368    2.358304    0.377866
     25          6           0        0.021748    3.523852    0.929155
     26          6           0       -1.298730    3.589367    1.333324
     27          6           0       -2.109891    2.479680    1.182558
     28          6           0       -1.642488    1.293087    0.634859
     29          1           0       -2.321575   -0.535283    2.536914
     30          1           0       -3.831877   -1.086562    1.810475
     31          1           0       -3.663423    0.589099    2.318177
     32          1           0       -3.319165    0.769753   -1.439360
     33          1           0       -4.431199   -0.302030   -0.586227
     34          1           0       -4.262418    1.377026   -0.077498
     35          1           0       -3.629656   -2.328556    0.022136
     36          1           0       -2.582872   -4.324373   -0.910785
     37          1           0       -0.195428   -4.262496   -1.578808
     38          1           0        1.090603   -2.205109   -1.303755
     39          1           0        3.410885    0.741122   -3.577864
     40          1           0        5.997145   -0.580184   -0.074709
     41          1           0        5.499695   -1.247918    2.294310
     42          1           0        3.128896   -1.242233    3.062120
     43          1           0        1.545001    2.315231    0.065825
     44          1           0        0.673140    4.377986    1.039104
     45          1           0       -1.696155    4.496653    1.761829
     46          1           0       -3.139457    2.547931    1.499625
 ---------------------------------------------------------------------
                    Distance matrix (angstroms):
                    1          2          3          4          5
     1  C    0.000000
     2  C    1.539340   0.000000
     3  C    2.529768   1.539561   0.000000
     4  C    2.483634   1.516726   2.479354   0.000000
     5  C    3.000946   2.512538   3.029244   1.387963   0.000000
     6  C    4.294439   3.802130   4.308854   2.424649   1.382793
     7  C    5.014752   4.314900   5.003108   2.798678   2.387131
     8  C    4.731239   3.824927   4.696071   2.416574   2.744679
     9  C    3.600763   2.551540   3.559072   1.396932   2.388275
    10  N    4.030967   2.911768   3.957242   2.417841   3.666813
    11  C    5.407256   4.319971   5.287957   3.694589   4.794331
    12  C    6.415502   5.135229   5.792838   4.509329   5.522662
    13  C    6.366704   4.915371   5.195918   4.410053   5.360508
    14  N    6.561386   5.036966   4.967992   4.660723   5.504861
    15  C    7.748343   6.522842   7.211309   5.840351   6.784071
    16  N    8.192295   7.131896   8.019383   6.411445   7.342077
    17  C    7.461211   6.595519   7.687622   5.889494   6.834917
    18  C    8.286667   7.611118   8.824448   6.907769   7.789841
    19  C    7.890011   7.461068   8.815593   6.815911   7.655636
    20  C    6.554039   6.250568   7.673342   5.678303   6.531376
    21  N    5.547156   5.067432   6.440996   4.493760   5.450491
    22  C    6.042653   5.229658   6.404195   4.574021   5.586141
    23  C    3.600764   2.551540   3.559072   2.839995   4.226546
    24  C    4.731240   3.824927   4.696070   4.235344   5.620890
    25  C    5.014753   4.314900   5.003107   5.107050   6.480183
    26  C    4.294441   3.802130   4.308852   4.938928   6.223583
    27  C    3.000947   2.512538   3.029242   3.809479   5.003043
    28  C    2.483634   1.516726   2.479354   2.515606   3.809479
    29  H    1.088293   2.164814   3.473799   2.724311   3.311948
    30  H    1.086244   2.178831   2.782158   2.722750   2.697669
    31  H    1.086244   2.178831   2.782164   3.440672   4.009690
    32  H    3.474029   2.165387   1.088377   2.718000   3.355696
    33  H    2.781172   2.177721   1.086597   2.716342   2.727078
    34  H    2.781170   2.177721   1.086597   3.436911   4.031747
    35  H    2.825932   2.696102   2.885636   2.136204   1.079442
    36  H    4.965028   4.651406   4.992069   3.396435   2.138904
    37  H    6.055940   5.394688   6.043599   3.878420   3.371854
    38  H    5.639832   4.697692   5.594233   3.395389   3.825228
    39  H    8.580631   7.269367   7.789759   6.602131   7.494191
    40  H    9.347429   8.625766   9.791357   7.897900   8.756020
    41  H    8.705525   8.392465   9.787848   7.760259   8.546195
    42  H    6.455090   6.409413   7.904747   5.923334   6.695589
    43  H    5.639833   4.697692   5.594232   4.844109   6.194528
    44  H    6.055943   5.394689   6.043597   6.152951   7.533077
    45  H    4.965030   4.651406   4.992066   5.901627   7.134489
    46  H    2.825934   2.696102   2.885634   4.176190   5.174495
                    6          7          8          9         10
     6  C    0.000000
     7  C    1.382500   0.000000
     8  C    2.388487   1.379184   0.000000
     9  C    2.781457   2.414089   1.396105   0.000000
    10  N    4.168481   3.673326   2.406050   1.387281   0.000000
    11  C    4.988306   4.136754   2.758550   2.407965   1.409716
    12  C    5.613292   4.687075   3.405552   3.267564   2.434198
    13  C    5.555347   4.835671   3.730413   3.443778   2.832478
    14  N    5.773025   5.244516   4.331467   3.974068   3.562309
    15  C    6.706857   5.614539   4.397846   4.526780   3.720503
    16  N    7.193699   6.018685   4.809575   5.041330   4.223633
    17  C    6.736290   5.611423   4.381822   4.545714   3.736567
    18  C    7.626466   6.487673   5.370451   5.612798   4.881202
    19  C    7.547073   6.528089   5.496993   5.657603   5.025132
    20  C    6.560873   5.709142   4.689801   4.661410   4.105797
    21  N    5.588196   4.783211   3.634061   3.433607   2.804020
    22  C    5.648604   4.682183   3.383119   3.293729   2.459162
    23  C    5.062031   4.843522   3.692974   2.430488   1.387281
    24  C    6.410917   6.065561   4.809302   3.692974   2.406050
    25  C    7.436525   7.254460   6.065561   4.843522   3.673326
    26  C    7.359694   7.436525   6.410917   5.062031   4.168482
    27  C    6.223583   6.480183   5.620890   4.226546   3.666813
    28  C    4.938928   5.107050   4.235344   2.839994   2.417841
    29  H    4.416723   4.955047   4.589097   3.543009   3.885279
    30  H    3.945044   4.911488   4.931921   4.008181   4.726404
    31  H    5.339366   6.073142   5.725662   4.510059   4.726399
    32  H    4.440746   4.935249   4.527563   3.470984   3.754545
    33  H    3.958321   4.896557   4.894821   3.967578   4.660409
    34  H    5.351637   6.063209   5.695247   4.474987   4.660411
    35  H    2.121443   3.357242   3.823980   3.369820   4.547362
    36  H    1.079227   2.142634   3.370616   3.860617   5.247672
    37  H    2.144004   1.079789   2.131319   3.388587   4.535873
    38  H    3.364042   2.127534   1.080565   2.149197   2.633922
    39  H    7.376471   6.288294   5.164301   5.341484   4.597153
    40  H    8.520448   7.318247   6.239682   6.569758   5.834513
    41  H    8.398951   7.392043   6.446831   6.649169   6.063393
    42  H    6.777750   6.076215   5.198187   5.102240   4.681910
    43  H    6.799930   6.240940   4.897765   4.018942   2.633922
    44  H    8.446866   8.183169   6.939966   5.790265   4.535873
    45  H    8.325403   8.471367   7.476170   6.116342   5.247672
    46  H    6.494170   6.957450   6.264286   4.878234   4.547362
                   11         12         13         14         15
    11  C    0.000000
    12  C    1.385870   0.000000
    13  C    2.430815   1.412809   0.000000
    14  N    3.477233   2.558449   1.145652   0.000000
    15  C    2.416652   1.418682   2.457209   3.495038   0.000000
    16  N    2.813974   2.395585   3.663835   4.750535   1.297320
    17  C    2.432814   2.734379   4.145684   5.290476   2.277814
    18  C    3.709879   4.145075   5.556545   6.701282   3.568929
    19  C    4.142984   4.937130   6.328689   7.463889   4.668686
    20  C    3.569438   4.675658   5.961487   7.042219   4.825071
    21  N    2.387872   3.633304   4.817508   5.855525   4.086670
    22  C    1.417875   2.404185   3.710910   4.816414   2.741001
    23  C    2.407965   3.267579   3.443805   3.974102   4.526789
    24  C    2.758550   3.405577   3.730460   4.331525   4.397863
    25  C    4.136754   4.687103   4.835726   5.244588   5.614559
    26  C    4.988306   5.613315   5.555396   5.773092   6.706874
    27  C    4.794331   5.522678   5.360542   5.504908   6.784082
    28  C    3.694589   4.509339   4.410075   4.660752   5.840358
    29  H    5.152917   6.319252   6.510227   6.884187   7.561277
    30  H    6.092957   7.062944   6.952225   7.078538   8.400722
    31  H    6.092950   7.062943   6.952232   7.078550   8.400719
    32  H    4.938233   5.197017   4.400490   4.019076   6.596571
    33  H    5.982946   6.486367   5.868749   5.591443   7.893795
    34  H    5.982949   6.486376   5.868765   5.591464   7.893803
    35  H    5.766381   6.491364   6.225417   6.247082   7.792220
    36  H    6.040526   6.617934   6.512452   6.654774   7.663109
    37  H    4.748799   5.166405   5.386287   5.818965   5.881256
    38  H    2.391432   2.885653   3.501571   4.289946   3.606493
    39  H    3.395333   2.168336   2.683325   3.482265   1.082077
    40  H    4.575770   4.767356   6.146441   7.273071   3.902396
    41  H    5.220288   6.000093   7.397753   8.535587   5.647187
    42  H    4.407866   5.616829   6.835951   7.875078   5.874449
    43  H    2.391433   2.885682   3.501619   4.290002   3.606512
    44  H    4.748799   5.166436   5.386347   5.819045   5.881279
    45  H    6.040526   6.617959   6.512504   6.654846   7.663127
    46  H    5.766381   6.491378   6.225446   6.247124   7.792230
                   16         17         18         19         20
    16  N    0.000000
    17  C    1.349030   0.000000
    18  C    2.389295   1.410861   0.000000
    19  C    3.622894   2.390871   1.368291   0.000000
    20  C    4.077405   2.728546   2.393068   1.409126   0.000000
    21  N    3.663656   2.429612   2.802962   2.394296   1.301819
    22  C    2.431626   1.422918   2.422506   2.725242   2.271507
    23  C    5.041329   4.545703   5.612782   5.657579   4.661381
    24  C    4.809573   4.381803   5.370419   5.496948   4.689749
    25  C    6.018683   5.611400   6.487633   6.528031   5.709078
    26  C    7.193697   6.736270   7.626431   7.547022   6.560816
    27  C    7.342076   6.834904   7.789818   7.655602   6.531336
    28  C    6.411444   5.889486   6.907755   6.815891   5.678280
    29  H    7.837554   6.963815   7.643506   7.109994   5.733253
    30  H    8.864615   8.146107   8.963415   8.550075   7.211825
    31  H    8.864607   8.146094   8.963398   8.550053   7.211802
    32  H    7.527611   7.371042   8.606830   8.766565   7.743154
    33  H    8.699306   8.357281   9.473080   9.429575   8.264523
    34  H    8.699309   8.357280   9.473076   9.429566   8.264514
    35  H    8.379756   7.858933   8.800004   8.603791   7.418847
    36  H    8.138359   7.695988   8.532123   8.421639   7.454347
    37  H    6.195777   5.857465   6.629927   6.721683   6.066693
    38  H    3.896088   3.538746   4.522558   4.814380   4.242401
    39  H    2.028128   3.245949   4.416789   5.614999   5.876489
    40  H    2.609835   2.147858   1.079159   2.152255   3.394368
    41  H    4.519493   3.384321   2.137329   1.078933   2.158450
    42  H    5.158996   3.810328   3.376474   2.167765   1.082050
    43  H    3.896086   3.538723   4.522522   4.814330   4.242347
    44  H    6.195775   5.857437   6.629879   6.721613   6.066618
    45  H    8.138357   7.695967   8.532084   8.421582   7.454285
    46  H    8.379755   7.858921   8.799983   8.603760   7.418812
                   21         22         23         24         25
    21  N    0.000000
    22  C    1.345877   0.000000
    23  C    3.433581   3.293714   0.000000
    24  C    3.634015   3.383092   1.396105   0.000000
    25  C    4.783158   4.682155   2.414089   1.379184   0.000000
    26  C    5.588150   5.648579   2.781458   2.388487   1.382500
    27  C    5.450459   5.586125   2.388275   2.744679   2.387131
    28  C    4.493740   4.574011   1.396932   2.416574   2.798678
    29  H    4.849440   5.544550   3.543014   4.589106   4.955060
    30  H    6.235128   6.737782   4.510062   5.725666   6.073143
    31  H    6.235108   6.737769   4.008174   4.931914   4.911480
    32  H    6.460947   6.196684   3.470983   4.527559   4.935243
    33  H    7.059323   7.069967   4.474986   5.695246   6.063208
    34  H    7.059316   7.069965   3.967581   4.894823   4.896559
    35  H    6.359327   6.573092   4.878234   6.264286   6.957450
    36  H    6.557014   6.656278   6.116342   7.476170   8.471367
    37  H    5.292236   5.137385   5.790265   6.939966   8.183169
    38  H    3.294931   2.796587   4.018941   4.897765   6.240940
    39  H    5.168544   3.822994   5.341498   5.164327   6.288326
    40  H    3.881920   3.400268   6.569744   6.239654   7.318211
    41  H    3.347736   3.802416   6.649144   6.446782   7.391978
    42  H    2.020565   3.233789   5.102208   5.198128   6.076140
    43  H    3.294883   2.796557   2.149198   1.080565   2.127534
    44  H    5.292177   5.137353   3.388587   2.131319   1.079789
    45  H    6.556965   6.656252   3.860617   3.370616   2.142634
    46  H    6.359299   6.573078   3.369820   3.823980   3.357242
                   26         27         28         29         30
    26  C    0.000000
    27  C    1.382793   0.000000
    28  C    2.424649   1.387963   0.000000
    29  H    4.416738   3.311961   2.724318   0.000000
    30  H    5.339365   4.009688   3.440673   1.764266   0.000000
    31  H    3.945037   2.697664   2.722744   1.764266   1.758970
    32  H    4.440739   3.355690   2.717997   4.302215   3.777593
    33  H    5.351636   4.031747   3.436911   3.776100   2.592077
    34  H    3.958323   2.727079   2.716345   3.776102   3.133540
    35  H    6.494170   5.174495   4.176190   3.354253   2.186687
    36  H    8.325403   7.134489   5.901627   5.129533   4.410067
    37  H    8.446865   7.533077   6.152951   5.945737   5.898946
    38  H    6.799930   6.194527   4.844109   5.402038   5.931306
    39  H    7.376499   7.494209   6.602142   8.478255   9.210441
    40  H    8.520417   8.755999   7.897888   8.719157  10.020979
    41  H    8.398892   8.546156   7.760236   7.857415   9.345500
    42  H    6.777681   6.695542   5.923306   5.521164   7.074122
    43  H    3.364042   3.825228   3.395389   5.402047   6.597486
    44  H    2.144004   3.371854   3.878420   5.945751   7.124006
    45  H    1.079227   2.138904   3.396435   5.129549   5.977956
    46  H    2.121443   1.079442   2.136204   3.354267   3.712898
                   31         32         33         34         35
    31  H    0.000000
    32  H    3.777597   0.000000
    33  H    3.133553   1.764419   0.000000
    34  H    2.592081   1.764419   1.762532   0.000000
    35  H    3.712903   3.439751   2.262605   3.760538   0.000000
    36  H    5.977959   5.174131   4.438569   6.001765   2.439136
    37  H    7.124005   5.924585   5.883219   7.113265   4.254065
    38  H    6.597480   5.321113   5.884459   6.556693   4.904495
    39  H    9.210442   7.061699   8.457916   8.457926   8.482461
    40  H   10.020963   9.512005  10.444586  10.444583   9.784758
    41  H    9.345476   9.786909  10.383393  10.383383   9.469721
    42  H    7.074095   8.117198   8.446861   8.446848   7.489969
    43  H    5.931298   5.321109   6.556691   5.884461   6.952966
    44  H    5.898938   5.924578   7.113264   5.883221   8.032806
    45  H    4.410062   5.174124   6.001765   4.438570   7.304001
    46  H    2.186685   3.439745   3.760539   2.262604   5.118925
                   36         37         38         39         40
    36  H    0.000000
    37  H    2.479914   0.000000
    38  H    4.259123   2.441797   0.000000
    39  H    8.288406   6.483665   4.385836   0.000000
    40  H    9.398653   7.360007   5.312729   4.550460   0.000000
    41  H    9.223075   7.518188   5.770822   6.542311   2.511092
    42  H    7.609721   6.458431   4.913516   6.935604   4.301728
    43  H    7.878924   7.000029   4.745071   4.385865   5.312698
    44  H    9.493931   9.070049   7.000028   6.483703   7.359963
    45  H    9.259570   9.493931   7.878924   8.288437   9.398618
    46  H    7.304001   8.032806   6.952966   8.482477   9.784739
                   41         42         43         44         45
    41  H    0.000000
    42  H    2.492038   0.000000
    43  H    5.770769   4.913457   0.000000
    44  H    7.518109   6.458343   2.441796   0.000000
    45  H    9.223009   7.609644   4.259122   2.479914   0.000000
    46  H    9.469685   7.489925   4.904495   4.254065   2.439136
                   46
    46  H    0.000000
 Stoichiometry    C24H18N4
 Framework group  C1[X(C24H18N4)]
 Deg. of freedom   132
 Full point group                 C1      NOp   1
 Largest Abelian subgroup         C1      NOp   1
 Largest concise Abelian subgroup C1      NOp   1
                         Standard orientation:                         
 ---------------------------------------------------------------------
 Center     Atomic      Atomic             Coordinates (Angstroms)
 Number     Number       Type             X           Y           Z
 ---------------------------------------------------------------------
      1          6           0        3.641724    0.000063   -1.809230
      2          6           0        2.978817    0.000026   -0.419941
      3          6           0        4.048125    0.000008    0.687681
      4          6           0        2.142962   -1.257785   -0.279534
      5          6           0        2.743844   -2.501497   -0.415786
      6          6           0        2.031141   -3.679830   -0.290473
      7          6           0        0.676035   -3.627228   -0.021722
      8          6           0        0.054219   -2.404657    0.122545
      9          6           0        0.774679   -1.215242   -0.001307
     10          7           0        0.125891   -0.000007    0.162474
     11          6           0       -1.237233   -0.000024    0.521907
     12          6           0       -1.626499   -0.000076    1.851985
     13          6           0       -0.661035   -0.000113    2.883444
     14          7           0        0.116581   -0.000143    3.724771
     15          6           0       -3.010494   -0.000090    2.163781
     16          7           0       -3.950139   -0.000058    1.269294
     17          6           0       -3.605457   -0.000009   -0.034959
     18          6           0       -4.608002    0.000026   -1.027649
     19          6           0       -4.230228    0.000076   -2.342756
     20          6           0       -2.857012    0.000091   -2.658849
     21          7           0       -1.905298    0.000061   -1.770607
     22          6           0       -2.250604    0.000011   -0.469782
     23          6           0        0.774662    1.215246   -0.001252
     24          6           0        0.054187    2.404645    0.122659
     25          6           0        0.675986    3.627231   -0.021550
     26          6           0        2.031091    3.679864   -0.290299
     27          6           0        2.743811    2.501547   -0.415668
     28          6           0        2.142945    1.257820   -0.279476
     29          1           0        2.875730    0.000068   -2.582299
     30          1           0        4.265088   -0.879412   -1.942898
     31          1           0        4.265065    0.879558   -1.942864
     32          1           0        3.567117   -0.000015    1.663999
     33          1           0        4.679715   -0.881253    0.615801
     34          1           0        4.679706    0.881279    0.615839
     35          1           0        3.801802   -2.559426   -0.622096
     36          1           0        2.531289   -4.629762   -0.400981
     37          1           0        0.100026   -4.535029    0.078555
     38          1           0       -1.005520   -2.372553    0.331219
     39          1           0       -3.325751   -0.000129    3.198916
     40          1           0       -5.641797    0.000011   -0.718048
     41          1           0       -4.962192    0.000104   -3.135427
     42          1           0       -2.532924    0.000130   -3.691224
     43          1           0       -1.005551    2.372518    0.331334
     44          1           0        0.099965    4.535020    0.078771
     45          1           0        2.531227    4.629808   -0.400761
     46          1           0        3.801768    2.559499   -0.621974
 ---------------------------------------------------------------------
 Rotational constants (GHZ):           0.2728925           0.1655974           0.1473047
 Leave Link  202 at Mon Jan 19 14:37:01 2026, MaxMem=  8053063680 cpu:               0.1 elap:               0.1
 (Enter /appl/Gaussian16/AVX_revB01/g16/l301.exe)
 Standard basis: 6-31G(d) (6D, 7F)
 Ernie: Thresh=  0.10000D-02 Tol=  0.10000D-05 Strict=F.
 There are   456 symmetry adapted cartesian basis functions of A   symmetry.
 There are   456 symmetry adapted basis functions of A   symmetry.
   456 basis functions,   856 primitive gaussians,   456 cartesian basis functions
    95 alpha electrons       95 beta electrons
       nuclear repulsion energy      2525.6507664955 Hartrees.
 IExCor=  402 DFT=T Ex+Corr=B3LYP ExCW=0 ScaHFX=  0.200000
 ScaDFX=  0.800000  0.720000  1.000000  0.810000 ScalE2=  1.000000  1.000000
 IRadAn=      5 IRanWt=     -1 IRanGd=            0 ICorTp=0 IEmpDi=  4
 NAtoms=   46 NActive=   46 NUniq=   46 SFac= 1.00D+00 NAtFMM=   60 NAOKFM=F Big=F
 Integral buffers will be    131072 words long.
 Raffenetti 2 integral format.
 Two-electron integral symmetry is turned on.
 Leave Link  301 at Mon Jan 19 14:37:02 2026, MaxMem=  8053063680 cpu:               0.7 elap:               0.0
 (Enter /appl/Gaussian16/AVX_revB01/g16/l302.exe)
 NPDir=0 NMtPBC=     1 NCelOv=     1 NCel=       1 NClECP=     1 NCelD=      1
         NCelK=      1 NCelE2=     1 NClLst=     1 CellRange=     0.0.
 One-electron integrals computed using PRISM.
 One-electron integral symmetry used in STVInt
 NBasis=   456 RedAO= T EigKep=  2.84D-04  NBF=   456
 NBsUse=   456 1.00D-06 EigRej= -1.00D+00 NBFU=   456
 Precomputing XC quadrature grid using
 IXCGrd= 4 IRadAn=           5 IRanWt=          -1 IRanGd=           0 AccXCQ= 0.00D+00.
 Generated NRdTot=       0 NPtTot=           0 NUsed=           0 NTot=          32
 NSgBfM=   454   454   454   454   454 MxSgAt=    46 MxSgA2=    46.
 Leave Link  302 at Mon Jan 19 14:37:02 2026, MaxMem=  8053063680 cpu:               6.8 elap:               0.4
 (Enter /appl/Gaussian16/AVX_revB01/g16/l303.exe)
 DipDrv:  MaxL=1.
 Leave Link  303 at Mon Jan 19 14:37:03 2026, MaxMem=  8053063680 cpu:               0.9 elap:               0.1
 (Enter /appl/Gaussian16/AVX_revB01/g16/l401.exe)
 ExpMin= 1.61D-01 ExpMax= 4.17D+03 ExpMxC= 6.27D+02 IAcc=3 IRadAn=         5 AccDes= 0.00D+00
 Harris functional with IExCor=  402 and IRadAn=       5 diagonalized for initial guess.
 HarFok:  IExCor=  402 AccDes= 0.00D+00 IRadAn=         5 IDoV= 1 UseB2=F ITyADJ=14
 ICtDFT=  3500011 ScaDFX=  1.000000  1.000000  1.000000  1.000000
 FoFCou: FMM=F IPFlag=           0 FMFlag=      100000 FMFlg1=           0
         NFxFlg=           0 DoJE=T BraDBF=F KetDBF=T FulRan=T
         wScrn=  0.000000 ICntrl=       500 IOpCl=  0 I1Cent=   200000004 NGrid=           0
         NMat0=    1 NMatS0=      1 NMatT0=    0 NMatD0=    1 NMtDS0=    0 NMtDT0=    0
 Petite list used in FoFCou.
 Harris En= -1144.36512224543    
 JPrj=0 DoOrth=F DoCkMO=F.
 Leave Link  401 at Mon Jan 19 14:37:05 2026, MaxMem=  8053063680 cpu:              32.7 elap:               2.1
 (Enter /appl/Gaussian16/AVX_revB01/g16/l502.exe)
 Integral symmetry usage will be decided dynamically.
 Closed shell SCF:
 Using DIIS extrapolation, IDIIS=  1040.
 NGot=  8053063680 LenX=  8052635580 LenY=  8052427188
 Requested convergence on RMS density matrix=1.00D-08 within  32 cycles.
 Requested convergence on MAX density matrix=1.00D-06.
 Requested convergence on             energy=1.00D-06.
 No special actions if energy rises.
 Fock matrices will be formed incrementally for  20 cycles.
 Integral accuracy reduced to 1.0D-05 until final iterations.

 Cycle   1  Pass 0  IDiag  1:
 FoFJK:  IHMeth= 1 ICntrl=       0 DoSepK=F KAlg= 0 I1Cent=           0 FoldK=F
 IRaf= 770000000 NMat=       1 IRICut=       1 DoRegI=T DoRafI=F ISym2E= 0 IDoP0=0 IntGTp=1.
 FoFCou: FMM=F IPFlag=           0 FMFlag=      100000 FMFlg1=           0
         NFxFlg=           0 DoJE=F BraDBF=F KetDBF=F FulRan=T
         wScrn=  0.000000 ICntrl=         0 IOpCl=  0 I1Cent=           0 NGrid=           0
         NMat0=    1 NMatS0=      1 NMatT0=    0 NMatD0=    1 NMtDS0=    0 NMtDT0=    0
 Symmetry not used in FoFCou.
 E= -1143.79520841942    
 DIIS: error= 3.42D-02 at cycle   1 NSaved=   1.
 NSaved= 1 IEnMin= 1 EnMin= -1143.79520841942     IErMin= 1 ErrMin= 3.42D-02
 ErrMax= 3.42D-02  0.00D+00 EMaxC= 1.00D-01 BMatC= 5.66D-01 BMatP= 5.66D-01
 IDIUse=3 WtCom= 6.58D-01 WtEn= 3.42D-01
 Coeff-Com:  0.100D+01
 Coeff-En:   0.100D+01
 Coeff:      0.100D+01
 Gap=     0.065 Goal=   None    Shift=    0.000
 GapD=    0.065 DampG=0.500 DampE=0.500 DampFc=0.2500 IDamp=-1.
 Damping current iteration by 2.50D-01
 RMSDP=4.73D-03 MaxDP=2.34D-01              OVMax= 2.77D-01

 Cycle   2  Pass 0  IDiag  1:
 RMSU=  1.15D-03    CP:  9.83D-01
 E= -1144.00012470699     Delta-E=       -0.204916287572 Rises=F Damp=T
 DIIS: error= 1.63D-02 at cycle   2 NSaved=   2.
 NSaved= 2 IEnMin= 2 EnMin= -1144.00012470699     IErMin= 2 ErrMin= 1.63D-02
 ErrMax= 1.63D-02  0.00D+00 EMaxC= 1.00D-01 BMatC= 1.54D-01 BMatP= 5.66D-01
 IDIUse=3 WtCom= 8.37D-01 WtEn= 1.63D-01
 Coeff-Com: -0.703D+00 0.170D+01
 Coeff-En:   0.000D+00 0.100D+01
 Coeff:     -0.589D+00 0.159D+01
 Gap=     0.110 Goal=   None    Shift=    0.000
 RMSDP=1.96D-03 MaxDP=1.20D-01 DE=-2.05D-01 OVMax= 2.71D-01

 Cycle   3  Pass 0  IDiag  1:
 RMSU=  1.70D-03    CP:  9.46D-01  1.66D+00
 E= -1144.24862635871     Delta-E=       -0.248501651719 Rises=F Damp=F
 DIIS: error= 2.99D-02 at cycle   3 NSaved=   3.
 NSaved= 3 IEnMin= 3 EnMin= -1144.24862635871     IErMin= 2 ErrMin= 1.63D-02
 ErrMax= 2.99D-02  0.00D+00 EMaxC= 1.00D-01 BMatC= 1.33D-01 BMatP= 1.54D-01
 IDIUse=3 WtCom= 7.01D-01 WtEn= 2.99D-01
 Coeff-Com: -0.527D+00 0.110D+01 0.424D+00
 Coeff-En:   0.000D+00 0.000D+00 0.100D+01
 Coeff:     -0.369D+00 0.773D+00 0.596D+00
 Gap=     0.107 Goal=   None    Shift=    0.000
 RMSDP=1.74D-03 MaxDP=8.93D-02 DE=-2.49D-01 OVMax= 1.65D-01

 Cycle   4  Pass 0  IDiag  1:
 RMSU=  9.94D-04    CP:  9.50D-01  2.13D+00  2.23D-01
 E= -1144.25714558147     Delta-E=       -0.008519222757 Rises=F Damp=F
 DIIS: error= 2.85D-02 at cycle   4 NSaved=   4.
 NSaved= 4 IEnMin= 4 EnMin= -1144.25714558147     IErMin= 2 ErrMin= 1.63D-02
 ErrMax= 2.85D-02  0.00D+00 EMaxC= 1.00D-01 BMatC= 1.29D-01 BMatP= 1.33D-01
 IDIUse=3 WtCom= 7.15D-01 WtEn= 2.85D-01
 Coeff-Com: -0.431D-01 0.150D+00 0.462D+00 0.431D+00
 Coeff-En:   0.000D+00 0.000D+00 0.489D+00 0.511D+00
 Coeff:     -0.308D-01 0.108D+00 0.470D+00 0.454D+00
 Gap=     0.089 Goal=   None    Shift=    0.000
 RMSDP=9.13D-04 MaxDP=6.00D-02 DE=-8.52D-03 OVMax= 9.43D-02

 Cycle   5  Pass 0  IDiag  1:
 RMSU=  2.44D-04    CP:  9.50D-01  1.81D+00  5.89D-01  5.00D-01
 E= -1144.38377291008     Delta-E=       -0.126627328607 Rises=F Damp=F
 DIIS: error= 1.84D-03 at cycle   5 NSaved=   5.
 NSaved= 5 IEnMin= 5 EnMin= -1144.38377291008     IErMin= 5 ErrMin= 1.84D-03
 ErrMax= 1.84D-03  0.00D+00 EMaxC= 1.00D-01 BMatC= 1.94D-03 BMatP= 1.29D-01
 IDIUse=3 WtCom= 9.82D-01 WtEn= 1.84D-02
 Coeff-Com:  0.172D-01-0.816D-02 0.232D+00 0.255D+00 0.504D+00
 Coeff-En:   0.000D+00 0.000D+00 0.000D+00 0.000D+00 0.100D+01
 Coeff:      0.169D-01-0.801D-02 0.228D+00 0.251D+00 0.513D+00
 Gap=     0.087 Goal=   None    Shift=    0.000
 RMSDP=1.62D-04 MaxDP=9.09D-03 DE=-1.27D-01 OVMax= 1.59D-02

 Cycle   6  Pass 0  IDiag  1:
 RMSU=  9.82D-05    CP:  9.50D-01  1.82D+00  5.99D-01  5.15D-01  4.81D-01
 E= -1144.38530115312     Delta-E=       -0.001528243041 Rises=F Damp=F
 DIIS: error= 8.66D-04 at cycle   6 NSaved=   6.
 NSaved= 6 IEnMin= 6 EnMin= -1144.38530115312     IErMin= 6 ErrMin= 8.66D-04
 ErrMax= 8.66D-04  0.00D+00 EMaxC= 1.00D-01 BMatC= 3.02D-04 BMatP= 1.94D-03
 IDIUse=3 WtCom= 9.91D-01 WtEn= 8.66D-03
 Coeff-Com:  0.886D-02-0.154D-01 0.468D-01 0.588D-01 0.304D+00 0.597D+00
 Coeff-En:   0.000D+00 0.000D+00 0.000D+00 0.000D+00 0.153D+00 0.847D+00
 Coeff:      0.879D-02-0.153D-01 0.464D-01 0.583D-01 0.302D+00 0.599D+00
 Gap=     0.089 Goal=   None    Shift=    0.000
 RMSDP=5.78D-05 MaxDP=3.13D-03 DE=-1.53D-03 OVMax= 4.92D-03

 Cycle   7  Pass 0  IDiag  1:
 RMSU=  2.94D-05    CP:  9.50D-01  1.82D+00  5.98D-01  5.17D-01  6.01D-01
                    CP:  5.93D-01
 E= -1144.38556466951     Delta-E=       -0.000263516392 Rises=F Damp=F
 DIIS: error= 2.55D-04 at cycle   7 NSaved=   7.
 NSaved= 7 IEnMin= 7 EnMin= -1144.38556466951     IErMin= 7 ErrMin= 2.55D-04
 ErrMax= 2.55D-04  0.00D+00 EMaxC= 1.00D-01 BMatC= 3.53D-05 BMatP= 3.02D-04
 IDIUse=3 WtCom= 9.97D-01 WtEn= 2.55D-03
 Coeff-Com:  0.240D-02-0.547D-02 0.106D-01 0.147D-01 0.139D+00 0.359D+00
 Coeff-Com:  0.480D+00
 Coeff-En:   0.000D+00 0.000D+00 0.000D+00 0.000D+00 0.000D+00 0.619D-01
 Coeff-En:   0.938D+00
 Coeff:      0.239D-02-0.546D-02 0.106D-01 0.147D-01 0.138D+00 0.358D+00
 Coeff:      0.482D+00
 Gap=     0.088 Goal=   None    Shift=    0.000
 RMSDP=1.73D-05 MaxDP=7.49D-04 DE=-2.64D-04 OVMax= 1.61D-03

 Cycle   8  Pass 0  IDiag  1:
 RMSU=  8.47D-06    CP:  9.50D-01  1.82D+00  5.98D-01  5.17D-01  6.03D-01
                    CP:  6.49D-01  5.24D-01
 E= -1144.38559876734     Delta-E=       -0.000034097826 Rises=F Damp=F
 DIIS: error= 8.04D-05 at cycle   8 NSaved=   8.
 NSaved= 8 IEnMin= 8 EnMin= -1144.38559876734     IErMin= 8 ErrMin= 8.04D-05
 ErrMax= 8.04D-05  0.00D+00 EMaxC= 1.00D-01 BMatC= 3.42D-06 BMatP= 3.53D-05
 IDIUse=1 WtCom= 1.00D+00 WtEn= 0.00D+00
 Coeff-Com:  0.215D-04-0.751D-03 0.122D-02 0.187D-02 0.490D-01 0.150D+00
 Coeff-Com:  0.286D+00 0.513D+00
 Coeff:      0.215D-04-0.751D-03 0.122D-02 0.187D-02 0.490D-01 0.150D+00
 Coeff:      0.286D+00 0.513D+00
 Gap=     0.088 Goal=   None    Shift=    0.000
 RMSDP=6.47D-06 MaxDP=3.53D-04 DE=-3.41D-05 OVMax= 5.29D-04

 Initial convergence to 1.0D-05 achieved.  Increase integral accuracy.
 Cycle   9  Pass 1  IDiag  1:
 E= -1144.38557109930     Delta-E=        0.000027668033 Rises=F Damp=F
 DIIS: error= 2.27D-04 at cycle   1 NSaved=   1.
 NSaved= 1 IEnMin= 1 EnMin= -1144.38557109930     IErMin= 1 ErrMin= 2.27D-04
 ErrMax= 2.27D-04  0.00D+00 EMaxC= 1.00D-01 BMatC= 3.41D-06 BMatP= 3.41D-06
 IDIUse=3 WtCom= 9.98D-01 WtEn= 2.27D-03
 Coeff-Com:  0.100D+01
 Coeff-En:   0.100D+01
 Coeff:      0.100D+01
 Gap=     0.088 Goal=   None    Shift=    0.000
 RMSDP=6.47D-06 MaxDP=3.53D-04 DE= 2.77D-05 OVMax= 8.39D-04

 Cycle  10  Pass 1  IDiag  1:
 RMSU=  7.41D-05    CP:  1.00D+00
 E= -1144.38557040774     Delta-E=        0.000000691565 Rises=F Damp=F
 DIIS: error= 7.71D-05 at cycle   2 NSaved=   2.
 NSaved= 2 IEnMin= 1 EnMin= -1144.38557109930     IErMin= 2 ErrMin= 7.71D-05
 ErrMax= 7.71D-05  0.00D+00 EMaxC= 1.00D-01 BMatC= 3.58D-06 BMatP= 3.41D-06
 IDIUse=1 WtCom= 1.00D+00 WtEn= 0.00D+00
 Coeff-Com:  0.508D+00 0.492D+00
 Coeff:      0.508D+00 0.492D+00
 Gap=     0.088 Goal=   None    Shift=    0.000
 RMSDP=8.53D-06 MaxDP=4.12D-04 DE= 6.92D-07 OVMax= 1.01D-03

 Cycle  11  Pass 1  IDiag  1:
 RMSU=  8.52D-06    CP:  1.00D+00  9.95D-01
 E= -1144.38557228328     Delta-E=       -0.000001875540 Rises=F Damp=F
 DIIS: error= 5.62D-05 at cycle   3 NSaved=   3.
 NSaved= 3 IEnMin= 3 EnMin= -1144.38557228328     IErMin= 3 ErrMin= 5.62D-05
 ErrMax= 5.62D-05  0.00D+00 EMaxC= 1.00D-01 BMatC= 1.81D-06 BMatP= 3.41D-06
 IDIUse=1 WtCom= 1.00D+00 WtEn= 0.00D+00
 Coeff-Com:  0.138D-01 0.412D+00 0.574D+00
 Coeff:      0.138D-01 0.412D+00 0.574D+00
 Gap=     0.088 Goal=   None    Shift=    0.000
 RMSDP=3.70D-06 MaxDP=1.62D-04 DE=-1.88D-06 OVMax= 4.34D-04

 Cycle  12  Pass 1  IDiag  1:
 RMSU=  1.06D-06    CP:  1.00D+00  1.01D+00  5.95D-01
 E= -1144.38557412469     Delta-E=       -0.000001841410 Rises=F Damp=F
 DIIS: error= 8.96D-06 at cycle   4 NSaved=   4.
 NSaved= 4 IEnMin= 4 EnMin= -1144.38557412469     IErMin= 4 ErrMin= 8.96D-06
 ErrMax= 8.96D-06  0.00D+00 EMaxC= 1.00D-01 BMatC= 5.97D-08 BMatP= 1.81D-06
 IDIUse=1 WtCom= 1.00D+00 WtEn= 0.00D+00
 Coeff-Com: -0.262D-02 0.251D+00 0.363D+00 0.388D+00
 Coeff:     -0.262D-02 0.251D+00 0.363D+00 0.388D+00
 Gap=     0.088 Goal=   None    Shift=    0.000
 RMSDP=6.91D-07 MaxDP=3.76D-05 DE=-1.84D-06 OVMax= 6.54D-05

 Cycle  13  Pass 1  IDiag  1:
 RMSU=  2.88D-07    CP:  1.00D+00  1.01D+00  6.01D-01  4.09D-01
 E= -1144.38557418264     Delta-E=       -0.000000057952 Rises=F Damp=F
 DIIS: error= 4.02D-06 at cycle   5 NSaved=   5.
 NSaved= 5 IEnMin= 5 EnMin= -1144.38557418264     IErMin= 5 ErrMin= 4.02D-06
 ErrMax= 4.02D-06  0.00D+00 EMaxC= 1.00D-01 BMatC= 3.24D-09 BMatP= 5.97D-08
 IDIUse=1 WtCom= 1.00D+00 WtEn= 0.00D+00
 Coeff-Com: -0.236D-02 0.154D+00 0.224D+00 0.266D+00 0.359D+00
 Coeff:     -0.236D-02 0.154D+00 0.224D+00 0.266D+00 0.359D+00
 Gap=     0.088 Goal=   None    Shift=    0.000
 RMSDP=1.65D-07 MaxDP=9.08D-06 DE=-5.80D-08 OVMax= 1.50D-05

 Cycle  14  Pass 1  IDiag  1:
 RMSU=  9.24D-08    CP:  1.00D+00  1.01D+00  5.98D-01  4.23D-01  5.39D-01
 E= -1144.38557418578     Delta-E=       -0.000000003138 Rises=F Damp=F
 DIIS: error= 1.28D-06 at cycle   6 NSaved=   6.
 NSaved= 6 IEnMin= 6 EnMin= -1144.38557418578     IErMin= 6 ErrMin= 1.28D-06
 ErrMax= 1.28D-06  0.00D+00 EMaxC= 1.00D-01 BMatC= 2.01D-10 BMatP= 3.24D-09
 IDIUse=1 WtCom= 1.00D+00 WtEn= 0.00D+00
 Coeff-Com: -0.133D-02 0.798D-01 0.116D+00 0.142D+00 0.235D+00 0.429D+00
 Coeff:     -0.133D-02 0.798D-01 0.116D+00 0.142D+00 0.235D+00 0.429D+00
 Gap=     0.088 Goal=   None    Shift=    0.000
 RMSDP=3.91D-08 MaxDP=4.09D-06 DE=-3.14D-09 OVMax= 4.55D-06

 Cycle  15  Pass 1  IDiag  1:
 RMSU=  3.12D-08    CP:  1.00D+00  1.01D+00  5.98D-01  4.24D-01  5.48D-01
                    CP:  7.48D-01
 E= -1144.38557418591     Delta-E=       -0.000000000134 Rises=F Damp=F
 DIIS: error= 2.98D-07 at cycle   7 NSaved=   7.
 NSaved= 7 IEnMin= 7 EnMin= -1144.38557418591     IErMin= 7 ErrMin= 2.98D-07
 ErrMax= 2.98D-07  0.00D+00 EMaxC= 1.00D-01 BMatC= 1.52D-11 BMatP= 2.01D-10
 IDIUse=1 WtCom= 1.00D+00 WtEn= 0.00D+00
 Coeff-Com: -0.486D-03 0.276D-01 0.399D-01 0.504D-01 0.938D-01 0.254D+00
 Coeff-Com:  0.535D+00
 Coeff:     -0.486D-03 0.276D-01 0.399D-01 0.504D-01 0.938D-01 0.254D+00
 Coeff:      0.535D+00
 Gap=     0.088 Goal=   None    Shift=    0.000
 RMSDP=1.18D-08 MaxDP=7.23D-07 DE=-1.34D-10 OVMax= 1.02D-06

 Cycle  16  Pass 1  IDiag  1:
 RMSU=  8.69D-09    CP:  1.00D+00  1.01D+00  5.98D-01  4.24D-01  5.58D-01
                    CP:  7.81D-01  7.89D-01
 E= -1144.38557418594     Delta-E=       -0.000000000026 Rises=F Damp=F
 DIIS: error= 5.90D-08 at cycle   8 NSaved=   8.
 NSaved= 8 IEnMin= 8 EnMin= -1144.38557418594     IErMin= 8 ErrMin= 5.90D-08
 ErrMax= 5.90D-08  0.00D+00 EMaxC= 1.00D-01 BMatC= 1.71D-12 BMatP= 1.52D-11
 IDIUse=1 WtCom= 1.00D+00 WtEn= 0.00D+00
 Coeff-Com: -0.779D-04 0.379D-02 0.542D-02 0.749D-02 0.175D-01 0.782D-01
 Coeff-Com:  0.300D+00 0.588D+00
 Coeff:     -0.779D-04 0.379D-02 0.542D-02 0.749D-02 0.175D-01 0.782D-01
 Coeff:      0.300D+00 0.588D+00
 Gap=     0.088 Goal=   None    Shift=    0.000
 RMSDP=3.88D-09 MaxDP=2.05D-07 DE=-2.64D-11 OVMax= 2.74D-07

 SCF Done:  E(RB3LYP) =  -1144.38557419     A.U. after   16 cycles
            NFock= 16  Conv=0.39D-08     -V/T= 2.0086
 KE= 1.134645731858D+03 PE=-7.704331910575D+03 EE= 2.899649838036D+03
 Leave Link  502 at Mon Jan 19 14:37:54 2026, MaxMem=  8053063680 cpu:             786.7 elap:              49.2
 (Enter /appl/Gaussian16/AVX_revB01/g16/l508.exe)
 QCSCF skips out because SCF is already converged.
 Leave Link  508 at Mon Jan 19 14:37:55 2026, MaxMem=  8053063680 cpu:               0.2 elap:               0.0
 (Enter /appl/Gaussian16/AVX_revB01/g16/l601.exe)
 Copying SCF densities to generalized density rwf, IOpCl= 0 IROHF=0.

 **********************************************************************

            Population analysis using the SCF Density.

 **********************************************************************

 Orbital symmetries:
       Occupied  (A) (A) (A) (A) (A) (A) (A) (A) (A) (A) (A) (A)
                 (A) (A) (A) (A) (A) (A) (A) (A) (A) (A) (A) (A)
                 (A) (A) (A) (A) (A) (A) (A) (A) (A) (A) (A) (A)
                 (A) (A) (A) (A) (A) (A) (A) (A) (A) (A) (A) (A)
                 (A) (A) (A) (A) (A) (A) (A) (A) (A) (A) (A) (A)
                 (A) (A) (A) (A) (A) (A) (A) (A) (A) (A) (A) (A)
                 (A) (A) (A) (A) (A) (A) (A) (A) (A) (A) (A) (A)
                 (A) (A) (A) (A) (A) (A) (A) (A) (A) (A) (A)
       Virtual   (A) (A) (A) (A) (A) (A) (A) (A) (A) (A) (A) (A)
                 (A) (A) (A) (A) (A) (A) (A) (A) (A) (A) (A) (A)
                 (A) (A) (A) (A) (A) (A) (A) (A) (A) (A) (A) (A)
                 (A) (A) (A) (A) (A) (A) (A) (A) (A) (A) (A) (A)
                 (A) (A) (A) (A) (A) (A) (A) (A) (A) (A) (A) (A)
                 (A) (A) (A) (A) (A) (A) (A) (A) (A) (A) (A) (A)
                 (A) (A) (A) (A) (A) (A) (A) (A) (A) (A) (A) (A)
                 (A) (A) (A) (A) (A) (A) (A) (A) (A) (A) (A) (A)
                 (A) (A) (A) (A) (A) (A) (A) (A) (A) (A) (A) (A)
                 (A) (A) (A) (A) (A) (A) (A) (A) (A) (A) (A) (A)
                 (A) (A) (A) (A) (A) (A) (A) (A) (A) (A) (A) (A)
                 (A) (A) (A) (A) (A) (A) (A) (A) (A) (A) (A) (A)
                 (A) (A) (A) (A) (A) (A) (A) (A) (A) (A) (A) (A)
                 (A) (A) (A) (A) (A) (A) (A) (A) (A) (A) (A) (A)
                 (A) (A) (A) (A) (A) (A) (A) (A) (A) (A) (A) (A)
                 (A) (A) (A) (A) (A) (A) (A) (A) (A) (A) (A) (A)
                 (A) (A) (A) (A) (A) (A) (A) (A) (A) (A) (A) (A)
                 (A) (A) (A) (A) (A) (A) (A) (A) (A) (A) (A) (A)
                 (A) (A) (A) (A) (A) (A) (A) (A) (A) (A) (A) (A)
                 (A) (A) (A) (A) (A) (A) (A) (A) (A) (A) (A) (A)
                 (A) (A) (A) (A) (A) (A) (A) (A) (A) (A) (A) (A)
                 (A) (A) (A) (A) (A) (A) (A) (A) (A) (A) (A) (A)
                 (A) (A) (A) (A) (A) (A) (A) (A) (A) (A) (A) (A)
                 (A) (A) (A) (A) (A) (A) (A) (A) (A) (A) (A) (A)
                 (A) (A) (A) (A) (A) (A) (A) (A) (A) (A) (A) (A)
                 (A) (A) (A) (A) (A) (A) (A) (A) (A) (A) (A) (A)
                 (A) (A) (A) (A) (A) (A) (A) (A) (A) (A) (A) (A)
                 (A) (A) (A) (A) (A) (A) (A) (A) (A) (A) (A) (A)
                 (A) (A) (A) (A) (A) (A) (A) (A) (A) (A) (A) (A)
                 (A) (A) (A) (A) (A) (A) (A) (A) (A) (A) (A) (A)
                 (A)
 The electronic state is 1-A.
 Alpha  occ. eigenvalues --  -14.37632 -14.35948 -14.35273 -14.34280 -10.27420
 Alpha  occ. eigenvalues --  -10.25971 -10.25628 -10.25459 -10.25414 -10.24901
 Alpha  occ. eigenvalues --  -10.23401 -10.22897 -10.22850 -10.22850 -10.22508
 Alpha  occ. eigenvalues --  -10.20158 -10.18506 -10.18506 -10.18149 -10.18149
 Alpha  occ. eigenvalues --  -10.18064 -10.18064 -10.17965 -10.17965 -10.17404
 Alpha  occ. eigenvalues --  -10.17404 -10.16799 -10.16598  -1.00833  -0.98361
 Alpha  occ. eigenvalues --   -0.96288  -0.91981  -0.86843  -0.85704  -0.84034
 Alpha  occ. eigenvalues --   -0.81825  -0.81018  -0.80000  -0.75978  -0.74274
 Alpha  occ. eigenvalues --   -0.72666  -0.72471  -0.69674  -0.68486  -0.68381
 Alpha  occ. eigenvalues --   -0.65075  -0.62941  -0.62765  -0.60211  -0.59409
 Alpha  occ. eigenvalues --   -0.58937  -0.56421  -0.55170  -0.54578  -0.54253
 Alpha  occ. eigenvalues --   -0.51996  -0.50471  -0.48318  -0.47232  -0.47221
 Alpha  occ. eigenvalues --   -0.46441  -0.46187  -0.45729  -0.45110  -0.43458
 Alpha  occ. eigenvalues --   -0.43117  -0.42932  -0.42488  -0.41675  -0.41648
 Alpha  occ. eigenvalues --   -0.40672  -0.40569  -0.39411  -0.38425  -0.37886
 Alpha  occ. eigenvalues --   -0.37337  -0.36985  -0.36769  -0.36553  -0.35693
 Alpha  occ. eigenvalues --   -0.35001  -0.34929  -0.34022  -0.32992  -0.31856
 Alpha  occ. eigenvalues --   -0.31819  -0.31215  -0.30725  -0.28401  -0.27745
 Alpha  occ. eigenvalues --   -0.26424  -0.24936  -0.24280  -0.23823  -0.18503
 Alpha virt. eigenvalues --   -0.09680  -0.05866  -0.01725  -0.00159   0.00078
 Alpha virt. eigenvalues --    0.01127   0.02911   0.03108   0.03996   0.08879
 Alpha virt. eigenvalues --    0.08976   0.10731   0.11053   0.11300   0.11815
 Alpha virt. eigenvalues --    0.13070   0.13641   0.14305   0.15497   0.15858
 Alpha virt. eigenvalues --    0.16067   0.16540   0.16931   0.17457   0.17608
 Alpha virt. eigenvalues --    0.17781   0.17812   0.18933   0.19332   0.20523
 Alpha virt. eigenvalues --    0.21101   0.21873   0.22370   0.22540   0.23965
 Alpha virt. eigenvalues --    0.24216   0.24524   0.26618   0.26718   0.27715
 Alpha virt. eigenvalues --    0.28820   0.29679   0.30168   0.31030   0.31316
 Alpha virt. eigenvalues --    0.32555   0.32995   0.34370   0.35071   0.35573
 Alpha virt. eigenvalues --    0.36751   0.37979   0.39288   0.39520   0.41700
 Alpha virt. eigenvalues --    0.42332   0.43499   0.45070   0.46753   0.47587
 Alpha virt. eigenvalues --    0.48207   0.49050   0.49954   0.50078   0.50774
 Alpha virt. eigenvalues --    0.51612   0.52038   0.52380   0.53014   0.53898
 Alpha virt. eigenvalues --    0.55011   0.55094   0.55870   0.56429   0.56897
 Alpha virt. eigenvalues --    0.57445   0.57647   0.57813   0.58172   0.58348
 Alpha virt. eigenvalues --    0.58770   0.59144   0.59761   0.60578   0.61008
 Alpha virt. eigenvalues --    0.61108   0.61485   0.61900   0.62251   0.62284
 Alpha virt. eigenvalues --    0.62627   0.62753   0.62981   0.63325   0.65226
 Alpha virt. eigenvalues --    0.65642   0.66440   0.66579   0.66730   0.67400
 Alpha virt. eigenvalues --    0.67894   0.67948   0.71325   0.71386   0.73212
 Alpha virt. eigenvalues --    0.74824   0.75038   0.77208   0.77674   0.78712
 Alpha virt. eigenvalues --    0.80202   0.80555   0.81184   0.81190   0.81458
 Alpha virt. eigenvalues --    0.81619   0.81985   0.82513   0.83198   0.83755
 Alpha virt. eigenvalues --    0.84436   0.84963   0.85332   0.85550   0.86075
 Alpha virt. eigenvalues --    0.86337   0.86592   0.87140   0.88487   0.89659
 Alpha virt. eigenvalues --    0.89976   0.90892   0.91374   0.91515   0.91685
 Alpha virt. eigenvalues --    0.92776   0.93488   0.94374   0.94889   0.95251
 Alpha virt. eigenvalues --    0.96048   0.96832   0.97804   0.98089   0.98382
 Alpha virt. eigenvalues --    0.99631   1.00142   1.01062   1.01779   1.02492
[...]
    45  H    0.000000  -0.000000   0.000000   0.000000   0.000909   0.004712
    46  H   -0.000000  -0.000000  -0.000000   0.000000   0.004644   0.000715
              25         26         27         28         29         30
     1  C    0.000009   0.000336  -0.007049  -0.054619   0.367179   0.358730
     2  C   -0.000219   0.005946  -0.061518   0.289980  -0.028200  -0.027780
     3  C    0.000008   0.000276  -0.006940  -0.056345   0.005526  -0.002994
     4  C    0.000014  -0.000240   0.005940   0.002110  -0.001685  -0.008951
     5  C    0.000000   0.000001  -0.000268   0.005940   0.000156   0.004197
     6  C   -0.000000   0.000000   0.000001  -0.000240  -0.000050   0.000028
     7  C   -0.000000  -0.000000   0.000000   0.000014  -0.000012  -0.000004
     8  C    0.000002   0.000000   0.000001  -0.000335   0.000007   0.000006
     9  C   -0.000073   0.000036   0.000652  -0.020629   0.000683  -0.000179
    10  N    0.005802  -0.000125   0.008122  -0.032064  -0.000189  -0.000019
    11  C   -0.000005  -0.000001  -0.000043   0.004974  -0.000014   0.000000
    12  C    0.000138  -0.000006  -0.000001  -0.000113  -0.000000  -0.000000
    13  C   -0.000022   0.000004  -0.000009  -0.000332   0.000000   0.000000
    14  N   -0.000006   0.000000  -0.000000  -0.000025   0.000000  -0.000000
    15  C   -0.000002   0.000000  -0.000000   0.000005   0.000000   0.000000
    16  N   -0.000000  -0.000000   0.000000  -0.000000  -0.000000   0.000000
    17  C   -0.000004   0.000000  -0.000000  -0.000002   0.000000  -0.000000
    18  C    0.000000  -0.000000  -0.000000  -0.000000   0.000000  -0.000000
    19  C    0.000000   0.000000  -0.000000  -0.000000   0.000000   0.000000
    20  C    0.000002   0.000000   0.000000  -0.000002   0.000000   0.000000
    21  N   -0.000046   0.000007  -0.000019  -0.000659   0.000040   0.000000
    22  C    0.000024  -0.000003  -0.000018  -0.000117   0.000005   0.000000
    23  C   -0.003862  -0.044572  -0.011392   0.522249   0.000683   0.000006
    24  C    0.532295  -0.030263  -0.060463  -0.049050   0.000007   0.000003
    25  C    4.846267   0.540740  -0.021493  -0.039604  -0.000012  -0.000000
    26  C    0.540740   4.882334   0.515740  -0.018033  -0.000050  -0.000000
    27  C   -0.021493   0.515740   5.023561   0.495492   0.000156   0.000127
    28  C   -0.039604  -0.018033   0.495492   4.877096  -0.001685   0.005357
    29  H   -0.000012  -0.000050   0.000156  -0.001685   0.556050  -0.027960
    30  H   -0.000000  -0.000000   0.000127   0.005357  -0.027960   0.581300
    31  H   -0.000004   0.000028   0.004196  -0.008950  -0.027960  -0.029245
    32  H   -0.000012  -0.000031   0.000039  -0.002094  -0.000179  -0.000045
    33  H   -0.000000   0.000001   0.000100   0.005521  -0.000048   0.001847
    34  H   -0.000002  -0.000019   0.004575  -0.008375  -0.000048  -0.000195
    35  H    0.000000  -0.000000   0.000006   0.000443   0.000050   0.003855
    36  H    0.000000   0.000000  -0.000000   0.000002   0.000000   0.000005
    37  H    0.000000   0.000000   0.000000  -0.000000  -0.000000  -0.000000
    38  H    0.000000   0.000000   0.000000   0.000026   0.000001   0.000000
    39  H    0.000000  -0.000000   0.000000  -0.000000  -0.000000  -0.000000
    40  H   -0.000000   0.000000  -0.000000   0.000000   0.000000  -0.000000
    41  H    0.000000  -0.000000   0.000000   0.000000  -0.000000  -0.000000
    42  H    0.000000  -0.000000   0.000000   0.000001  -0.000000  -0.000000
    43  H   -0.040830   0.004688   0.000606   0.004937   0.000001  -0.000000
    44  H    0.356279  -0.040988   0.004512   0.001069  -0.000000  -0.000000
    45  H   -0.042215   0.357881  -0.039026   0.003411   0.000000  -0.000000
    46  H    0.005032  -0.042960   0.354946  -0.048013   0.000050  -0.000160
              31         32         33         34         35         36
     1  C    0.358730   0.005494  -0.003224  -0.003224  -0.000254   0.000000
     2  C   -0.027780  -0.027655  -0.028179  -0.028179  -0.007922  -0.000143
     3  C   -0.002995   0.368722   0.358762   0.358762  -0.000172  -0.000000
     4  C    0.005357  -0.002094  -0.008375   0.005521  -0.048013   0.003411
     5  C    0.000127   0.000039   0.004575   0.000100   0.354946  -0.039026
     6  C   -0.000000  -0.000031  -0.000019   0.000001  -0.042960   0.357881
     7  C   -0.000000  -0.000012  -0.000002  -0.000000   0.005032  -0.042215
     8  C    0.000003   0.000002   0.000003   0.000003   0.000715   0.004712
     9  C    0.000006   0.000864  -0.000154   0.000016   0.004644   0.000909
    10  N   -0.000019  -0.000190  -0.000020  -0.000020  -0.000085   0.000004
    11  C    0.000000  -0.000011   0.000000   0.000000   0.000002  -0.000000
    12  C   -0.000000   0.000004  -0.000000  -0.000000   0.000000   0.000000
    13  C    0.000000   0.000025  -0.000000  -0.000000  -0.000000   0.000000
    14  N   -0.000000   0.000015   0.000000   0.000000  -0.000000   0.000000
    15  C    0.000000   0.000000  -0.000000  -0.000000   0.000000  -0.000000
    16  N    0.000000  -0.000000   0.000000   0.000000  -0.000000   0.000000
    17  C   -0.000000   0.000000   0.000000   0.000000   0.000000   0.000000
    18  C   -0.000000  -0.000000  -0.000000  -0.000000  -0.000000  -0.000000
    19  C    0.000000   0.000000  -0.000000  -0.000000  -0.000000   0.000000
    20  C    0.000000  -0.000000  -0.000000  -0.000000  -0.000000  -0.000000
    21  N    0.000000   0.000000   0.000000   0.000000  -0.000000   0.000000
    22  C    0.000000   0.000000  -0.000000  -0.000000   0.000000   0.000000
    23  C   -0.000179   0.000864   0.000016  -0.000154  -0.000036   0.000000
    24  C    0.000006   0.000002   0.000003   0.000003  -0.000000   0.000000
    25  C   -0.000004  -0.000012  -0.000000  -0.000002   0.000000   0.000000
    26  C    0.000028  -0.000031   0.000001  -0.000019  -0.000000   0.000000
    27  C    0.004196   0.000039   0.000100   0.004575   0.000006  -0.000000
    28  C   -0.008950  -0.002094   0.005521  -0.008375   0.000443   0.000002
    29  H   -0.027960  -0.000179  -0.000048  -0.000048   0.000050   0.000000
    30  H   -0.029245  -0.000045   0.001847  -0.000195   0.003855   0.000005
    31  H    0.581301  -0.000045  -0.000195   0.001847  -0.000160  -0.000000
    32  H   -0.000045   0.549378  -0.027757  -0.027757   0.000040   0.000000
    33  H   -0.000195  -0.027757   0.581118  -0.029094   0.003303   0.000004
    34  H    0.001847  -0.027757  -0.029094   0.581119  -0.000143  -0.000000
    35  H   -0.000160   0.000040   0.003303  -0.000143   0.605949  -0.005542
    36  H   -0.000000   0.000000   0.000004  -0.000000  -0.005542   0.600854
    37  H   -0.000000  -0.000000  -0.000000   0.000000  -0.000213  -0.005003
    38  H   -0.000000   0.000001   0.000000  -0.000000   0.000018  -0.000194
    39  H   -0.000000   0.000000   0.000000   0.000000  -0.000000  -0.000000
    40  H   -0.000000   0.000000   0.000000   0.000000   0.000000  -0.000000
    41  H   -0.000000  -0.000000   0.000000   0.000000   0.000000  -0.000000
    42  H   -0.000000  -0.000000   0.000000   0.000000   0.000000  -0.000000
    43  H    0.000000   0.000001  -0.000000   0.000000  -0.000000  -0.000000
    44  H   -0.000000  -0.000000   0.000000  -0.000000   0.000000   0.000000
    45  H    0.000005   0.000000  -0.000000   0.000004  -0.000000  -0.000000
    46  H    0.003854   0.000040  -0.000143   0.003303   0.000003  -0.000000
              37         38         39         40         41         42
     1  C    0.000000   0.000002   0.000000  -0.000000   0.000000   0.000000
     2  C    0.000008  -0.000162  -0.000000   0.000000  -0.000000  -0.000000
     3  C    0.000000   0.000002   0.000000  -0.000000  -0.000000   0.000000
     4  C    0.001069   0.004937  -0.000000   0.000000   0.000000   0.000001
     5  C    0.004512   0.000606   0.000000  -0.000000   0.000000   0.000000
     6  C   -0.040988   0.004688  -0.000000   0.000000  -0.000000  -0.000000
     7  C    0.356279  -0.040830   0.000000  -0.000000   0.000000   0.000000
     8  C   -0.039242   0.341225   0.000003  -0.000000  -0.000000  -0.000003
     9  C    0.003391  -0.036597  -0.000002   0.000000  -0.000000  -0.000006
    10  N   -0.000104  -0.014538  -0.000088   0.000001  -0.000000  -0.000001
    11  C    0.000004   0.017245   0.001620  -0.000049   0.000015  -0.000170
    12  C   -0.000000  -0.001555  -0.063224  -0.000004   0.000001   0.000006
    13  C    0.000000  -0.000718   0.001401  -0.000000   0.000000  -0.000000
    14  N   -0.000000  -0.000051   0.000829   0.000000  -0.000000   0.000000
    15  C   -0.000000   0.000593   0.377902   0.000361   0.000001  -0.000001
    16  N   -0.000000  -0.000094  -0.045751   0.000489  -0.000081   0.000011
    17  C   -0.000000   0.000473   0.003691  -0.033880   0.003920   0.000622
    18  C    0.000000   0.000019  -0.000320   0.351877  -0.035427   0.003332
    19  C    0.000000  -0.000007   0.000002  -0.045065   0.352231  -0.064269
    20  C   -0.000000  -0.000002   0.000000   0.004529  -0.035097   0.377773
    21  N   -0.000000  -0.000260   0.000012  -0.000408   0.004506  -0.051401
    22  C   -0.000002  -0.001480   0.000880   0.006150   0.000520   0.004177
    23  C    0.000001  -0.000120  -0.000002   0.000000  -0.000000  -0.000006
    24  C   -0.000000  -0.000001   0.000003  -0.000000  -0.000000  -0.000003
    25  C    0.000000   0.000000   0.000000  -0.000000   0.000000   0.000000
    26  C    0.000000   0.000000  -0.000000   0.000000  -0.000000  -0.000000
    27  C    0.000000   0.000000   0.000000  -0.000000   0.000000   0.000000
    28  C   -0.000000   0.000026  -0.000000   0.000000   0.000000   0.000001
    29  H   -0.000000   0.000001  -0.000000   0.000000  -0.000000  -0.000000
    30  H   -0.000000   0.000000  -0.000000  -0.000000  -0.000000  -0.000000
    31  H   -0.000000  -0.000000  -0.000000  -0.000000  -0.000000  -0.000000
    32  H   -0.000000   0.000001   0.000000   0.000000  -0.000000  -0.000000
    33  H   -0.000000   0.000000   0.000000   0.000000   0.000000   0.000000
    34  H    0.000000  -0.000000   0.000000   0.000000   0.000000   0.000000
    35  H   -0.000213   0.000018  -0.000000   0.000000   0.000000   0.000000
    36  H   -0.005003  -0.000194  -0.000000  -0.000000  -0.000000  -0.000000
    37  H    0.598617  -0.005989  -0.000000  -0.000000   0.000000   0.000000
    38  H   -0.005989   0.604962   0.000004   0.000000  -0.000000  -0.000001
    39  H   -0.000000   0.000004   0.545477  -0.000021  -0.000000   0.000000
    40  H   -0.000000   0.000000  -0.000021   0.553316  -0.005484  -0.000145
    41  H    0.000000  -0.000000  -0.000000  -0.005484   0.560597  -0.001465
    42  H    0.000000  -0.000001   0.000000  -0.000145  -0.001465   0.572372
    43  H   -0.000000   0.000009   0.000004   0.000000  -0.000000  -0.000001
    44  H   -0.000000  -0.000000  -0.000000  -0.000000   0.000000   0.000000
    45  H    0.000000  -0.000000  -0.000000  -0.000000  -0.000000  -0.000000
    46  H    0.000000  -0.000000  -0.000000   0.000000   0.000000   0.000000
              43         44         45         46
     1  C    0.000002   0.000000   0.000000  -0.000254
     2  C   -0.000162   0.000008  -0.000143  -0.007922
     3  C    0.000002   0.000000  -0.000000  -0.000172
     4  C    0.000026  -0.000000   0.000002   0.000443
     5  C    0.000000   0.000000  -0.000000   0.000006
     6  C    0.000000   0.000000   0.000000  -0.000000
     7  C    0.000000   0.000000   0.000000   0.000000
     8  C   -0.000001  -0.000000   0.000000  -0.000000
     9  C   -0.000120   0.000001   0.000000  -0.000036
    10  N   -0.014538  -0.000104   0.000004  -0.000085
    11  C    0.017245   0.000004  -0.000000   0.000002
    12  C   -0.001556  -0.000000   0.000000   0.000000
    13  C   -0.000718   0.000000   0.000000  -0.000000
    14  N   -0.000051  -0.000000   0.000000  -0.000000
    15  C    0.000593  -0.000000  -0.000000   0.000000
    16  N   -0.000094  -0.000000   0.000000  -0.000000
    17  C    0.000473  -0.000000   0.000000   0.000000
    18  C    0.000019   0.000000  -0.000000  -0.000000
    19  C   -0.000007   0.000000   0.000000  -0.000000
    20  C   -0.000002  -0.000000  -0.000000  -0.000000
    21  N   -0.000260  -0.000000   0.000000  -0.000000
    22  C   -0.001480  -0.000002   0.000000   0.000000
    23  C   -0.036597   0.003391   0.000909   0.004644
    24  C    0.341225  -0.039242   0.004712   0.000715
    25  C   -0.040830   0.356279  -0.042215   0.005032
    26  C    0.004688  -0.040988   0.357881  -0.042960
    27  C    0.000606   0.004512  -0.039026   0.354946
    28  C    0.004937   0.001069   0.003411  -0.048013
    29  H    0.000001  -0.000000   0.000000   0.000050
    30  H   -0.000000  -0.000000  -0.000000  -0.000160
    31  H    0.000000  -0.000000   0.000005   0.003854
    32  H    0.000001  -0.000000   0.000000   0.000040
    33  H   -0.000000   0.000000  -0.000000  -0.000143
    34  H    0.000000  -0.000000   0.000004   0.003303
    35  H   -0.000000   0.000000  -0.000000   0.000003
    36  H   -0.000000   0.000000  -0.000000  -0.000000
    37  H   -0.000000  -0.000000   0.000000   0.000000
    38  H    0.000009  -0.000000  -0.000000  -0.000000
    39  H    0.000004  -0.000000  -0.000000  -0.000000
    40  H    0.000000  -0.000000  -0.000000   0.000000
    41  H   -0.000000   0.000000  -0.000000   0.000000
    42  H   -0.000001   0.000000  -0.000000   0.000000
    43  H    0.604962  -0.005989  -0.000194   0.000018
    44  H   -0.005989   0.598617  -0.005003  -0.000213
    45  H   -0.000194  -0.005003   0.600854  -0.005542
    46  H    0.000018  -0.000213  -0.005542   0.605949
 Mulliken charges:
               1
     1  C   -0.438111
     2  C   -0.040529
     3  C   -0.435242
     4  C    0.122661
     5  C   -0.210533
     6  C   -0.130728
     7  C   -0.138199
     8  C   -0.177541
     9  C    0.329172
    10  N   -0.754736
    11  C    0.199504
    12  C    0.118650
    13  C    0.249455
    14  N   -0.462822
    15  C    0.028285
    16  N   -0.485999
    17  C    0.267659
    18  C   -0.102135
    19  C   -0.150803
    20  C    0.052433
    21  N   -0.476014
    22  C    0.279376
    23  C    0.329172
    24  C   -0.177541
    25  C   -0.138199
    26  C   -0.130727
    27  C   -0.210533
    28  C    0.122659
    29  H    0.157500
    30  H    0.142072
    31  H    0.142071
    32  H    0.162382
    33  H    0.141958
    34  H    0.141957
    35  H    0.126495
    36  H    0.124342
    37  H    0.127660
    38  H    0.127788
    39  H    0.177578
    40  H    0.168334
    41  H    0.155764
    42  H    0.159178
    43  H    0.127788
    44  H    0.127660
    45  H    0.124342
    46  H    0.126495
 Sum of Mulliken charges =  -0.00000
 Mulliken charges with hydrogens summed into heavy atoms:
               1
     1  C    0.003532
     2  C   -0.040529
     3  C    0.011055
     4  C    0.122661
     5  C   -0.084038
     6  C   -0.006385
     7  C   -0.010539
     8  C   -0.049753
     9  C    0.329172
    10  N   -0.754736
    11  C    0.199504
    12  C    0.118650
    13  C    0.249455
    14  N   -0.462822
    15  C    0.205863
    16  N   -0.485999
    17  C    0.267659
    18  C    0.066200
    19  C    0.004961
    20  C    0.211611
    21  N   -0.476014
    22  C    0.279376
    23  C    0.329172
    24  C   -0.049752
    25  C   -0.010539
    26  C   -0.006385
    27  C   -0.084038
    28  C    0.122659
 Electronic spatial extent (au):  <R**2>=           8600.1108
 Charge=             -0.0000 electrons
 Dipole moment (field-independent basis, Debye):
    X=             -2.6361    Y=             -0.0001    Z=             -4.1568  Tot=              4.9222
 Quadrupole moment (field-independent basis, Debye-Ang):
   XX=           -140.8970   YY=           -153.3076   ZZ=           -168.7447
   XY=              0.0001   XZ=              3.3710   YZ=             -0.0001
 Traceless Quadrupole moment (field-independent basis, Debye-Ang):
   XX=             13.4194   YY=              1.0088   ZZ=            -14.4283
   XY=              0.0001   XZ=              3.3710   YZ=             -0.0001
 Octapole moment (field-independent basis, Debye-Ang**2):
  XXX=             -7.8855  YYY=              0.0002  ZZZ=            -97.6289  XYY=             11.3023
  XXY=             -0.0006  XXZ=            -51.2884  XZZ=            -55.1889  YZZ=             -0.0014
  YYZ=              0.9738  XYZ=             -0.0007
 Hexadecapole moment (field-independent basis, Debye-Ang**3):
 XXXX=          -6099.1969 YYYY=          -2988.4500 ZZZZ=          -2433.1105 XXXY=              0.0028
 XXXZ=            199.9574 YYYX=             -0.0010 YYYZ=             -0.0032 ZZZX=             61.8239
 ZZZY=             -0.0004 XXYY=          -1565.0437 XXZZ=          -1288.8036 YYZZ=           -977.2836
 XXYZ=              0.0024 YYXZ=            -37.6018 ZZXY=              0.0014
 N-N= 2.501057249212D+03 E-N=-7.654200698246D+03  KE= 1.133465706672D+03
 No NMR shielding tensors so no spin-rotation constants.
 Leave Link  601 at Mon Jan 19 14:49:46 2026, MaxMem=  8053063680 cpu:               2.7 elap:               0.3
 (Enter /appl/Gaussian16/AVX_revB01/g16/l9999.exe)
 1\1\GINC-CNODE14\FOpt\RB3LYP\6-31G(d)\C24H18N4\JUNHKIM\19-Jan-2026\0\\
 #P b3lyp/6-31g* opt SCF=XQC\\Gaussian input prepared by ASE\\0,1\C,-3.
 0268437824,-0.2946289086,1.9766396895\C,-2.5697323012,0.0934290295,0.5
 442065789\C,-3.8090870907,0.4767242389,-0.3097008797\C,-1.8747177109,-
 1.1115025194,-0.1010778725\C,-2.5708370559,-2.3210285131,-0.2271837745
 \C,-2.0093270264,-3.4559812984,-0.8051972396\C,-0.701330121,-3.3904600
 774,-1.2805480384\C,0.0167660314,-2.2055491946,-1.1753465592\C,-0.5556
 751788,-1.0609338812,-0.5905070946\N,0.1880474084,0.1373293218,-0.5156
 513533\C,1.5508112707,0.1205770209,-0.9124877119\C,1.9285061389,0.4733
 533653,-2.2021456747\C,0.9634679715,0.8676877242,-3.1834868681\N,0.223
 4989448,1.1950877551,-4.0185817629\C,3.3119437314,0.4432672611,-2.5618
 304675\N,4.2758302351,0.0980062424,-1.7420738617\C,3.9284750255,-0.252
 6065868,-0.4696207142\C,4.9457128508,-0.6313037228,0.4427932554\C,4.59
 05449516,-0.9833493001,1.7225675546\C,3.2181811031,-0.9554485846,2.085
 7910747\N,2.2414992759,-0.6106819773,1.2719107296\C,2.5791261319,-0.25
 9834798,0.0019113424\C,-0.3192734972,1.2908255279,0.1220263106\C,0.483
 8339848,2.4409124718,0.2324274297\C,0.0009100917,3.5955421445,0.836047
 7796\C,-1.2974222024,3.6261884271,1.3405287358\C,-2.0876581294,2.48573
 54789,1.2291495014\C,-1.6319531332,1.303554601,0.6306341876\H,-2.16581
 18374,-0.5684396126,2.594749617\H,-3.7153146516,-1.1455048589,1.955148
 8276\H,-3.5462924907,0.53628276,2.4646983815\H,-3.508303212,0.75411733
 92,-1.3250297912\H,-4.5121726781,-0.3600569654,-0.3797361755\H,-4.3427
 426019,1.3255243725,0.1309656636\H,-3.5916407055,-2.375509034,0.139544
 005\H,-2.5858147949,-4.3729559626,-0.8834220373\H,-0.2332292548,-4.257
 8853794,-1.7378089129\H,1.0313695297,-2.1710126869,-1.5545940393\H,3.5
 950601013,0.7217593698,-3.5749323404\H,5.9747336559,-0.6300320866,0.09
 7196713\H,5.3354209585,-1.2800400578,2.4546782966\H,2.9247713476,-1.23
 24344056,3.0973383442\H,1.4944924972,2.4362025491,-0.1587108082\H,0.64
 39642693,4.4685860895,0.9061061659\H,-1.6917125191,4.5217667942,1.8114
 579776\H,-3.1000745313,2.5147205272,1.6211568156\\Version=ES64L-G16Rev
 B.01\State=1-A\HF=-1144.3920567\RMSD=4.025e-09\RMSF=3.124e-06\Dipole=1
 .1924245,-0.5509886,1.4229479\Quadrupole=10.1826574,-0.1403594,-10.042
 298,-0.972876,0.0815057,3.2616108\PG=C01 [X(C24H18N4)]\\@


 I do not feel obliged to believe that the same God who
 has endowed us with sense, reason, and intellect has
 intended us to forgo their use.
                   --Galileo Galilei
 Job cpu time:       0 days  3 hours 15 minutes 37.2 seconds.
 Elapsed time:       0 days  0 hours 12 minutes 20.7 seconds.
 File lengths (MBytes):  RWF=    146 Int=      0 D2E=      0 Chk=     18 Scr=      2
 Normal termination of Gaussian 16 at Mon Jan 19 14:49:46 2026.
