
                                 *****************
                                 * O   R   C   A *
                                 *****************

           --- An Ab Initio, DFT and Semiempirical electronic structure package ---

                  #######################################################
                  #                        -***-                        #
                  #          Department of theory and spectroscopy      #
                  #               Directorship: Frank Neese             #
                  #        Max Planck Institute fuer Kohlenforschung    #
                  #                Kaiser Wilhelm Platz 1               #
                  #                 D-45470 Muelheim/Ruhr               #
                  #                      Germany                        #
                  #                                                     #
                  #                  All rights reserved                #
                  #                        -***-                        #
                  #######################################################


                         Program Version 4.2.1 -  RELEASE  -


 With contributions from (in alphabetic order):
   Daniel Aravena         : Magnetic Suceptibility
   Michael Atanasov       : Ab Initio Ligand Field Theory (pilot matlab implementation)
   Alexander A. Auer      : GIAO ZORA, VPT2
   Ute Becker             : Parallelization
   Giovanni Bistoni       : ED, misc. LED, open-shell LED, HFLD
   Martin Brehm           : Molecular dynamics
   Dmytro Bykov           : SCF Hessian
   Vijay G. Chilkuri      : MRCI spin determinant printing, contributions to CSF-ICE
   Dipayan Datta          : RHF DLPNO-CCSD density
   Achintya Kumar Dutta   : EOM-CC, STEOM-CC
   Dmitry Ganyushin       : Spin-Orbit,Spin-Spin,Magnetic field MRCI
   Miquel Garcia          : C-PCM Hessian, Gaussian charge scheme
   Yang Guo               : DLPNO-NEVPT2, CIM, IAO-localization
   Andreas Hansen         : Spin unrestricted coupled pair/coupled cluster methods
   Benjamin Helmich-Paris : CASSCF linear response (MC-RPA)
   Lee Huntington         : MR-EOM, pCC
   Robert Izsak           : Overlap fitted RIJCOSX, COSX-SCS-MP3, EOM
   Christian Kollmar      : KDIIS, OOCD, Brueckner-CCSD(T), CCSD density
   Simone Kossmann        : Meta GGA functionals, TD-DFT gradient, OOMP2, MP2 Hessian
   Martin Krupicka        : AUTO-CI
   Lucas Lang             : DCDCAS
   Dagmar Lenk            : GEPOL surface, SMD
   Dimitrios Liakos       : Extrapolation schemes; Compound Job, initial MDCI parallelization
   Dimitrios Manganas     : Further ROCIS development; embedding schemes
   Dimitrios Pantazis     : SARC Basis sets
   Taras Petrenko         : DFT Hessian,TD-DFT gradient, ASA, ECA, R-Raman, ABS, FL, XAS/XES, NRVS
   Peter Pinski           : DLPNO-MP2, DLPNO-MP2 Gradient
   Christoph Reimann      : Effective Core Potentials
   Marius Retegan         : Local ZFS, SOC
   Christoph Riplinger    : Optimizer, TS searches, QM/MM, DLPNO-CCSD(T), (RO)-DLPNO pert. Triples
   Tobias Risthaus        : Range-separated hybrids, TD-DFT gradient, RPA, STAB
   Michael Roemelt        : Original ROCIS implementation
   Masaaki Saitow         : Open-shell DLPNO-CCSD energy and density
   Barbara Sandhoefer     : DKH picture change effects
   Avijit Sen             : IP-ROCIS
   Kantharuban Sivalingam : CASSCF convergence, NEVPT2, FIC-MRCI
   Bernardo de Souza      : ESD, SOC TD-DFT
   Georgi Stoychev        : AutoAux, RI-MP2 NMR
   Willem Van den Heuvel  : Paramagnetic NMR
   Boris Wezisla          : Elementary symmetry handling
   Frank Wennmohs         : Technical directorship


 We gratefully acknowledge several colleagues who have allowed us to
 interface, adapt or use parts of their codes:
   Stefan Grimme, W. Hujo, H. Kruse,             : VdW corrections, initial TS optimization,
                  C. Bannwarth                     DFT functionals, gCP, sTDA/sTD-DF
   Ed Valeev, F. Pavosevic, A. Kumar             : LibInt (2-el integral package), F12 methods
   Garnet Chan, S. Sharma, J. Yang, R. Olivares  : DMRG
   Ulf Ekstrom                                   : XCFun DFT Library
   Mihaly Kallay                                 : mrcc  (arbitrary order and MRCC methods)
   Andreas Klamt, Michael Diedenhofen            : otool_cosmo (COSMO solvation model)
   Jiri Pittner, Ondrej Demel                    : Mk-CCSD
   Frank Weinhold                                : gennbo (NPA and NBO analysis)
   Christopher J. Cramer and Donald G. Truhlar   : smd solvation model
   Lars Goerigk                                  : TD-DFT with DH, B97 family of functionals
   V. Asgeirsson, H. Jonsson                     : NEB implementation
   FAccTs GmbH                                   : IRC, NEB, NEB-TS, Multilevel, MM, QM/MM, CI optimization
   S Lehtola, MJT Oliveira, MAL Marques          : LibXC Library


 Your calculation uses the libint2 library for the computation of 2-el integrals
 For citations please refer to: http://libint.valeyev.net

 Your ORCA version has been built with support for libXC version: 4.2.3
 For citations please refer to: https://tddft.org/programs/libxc/

 This ORCA versions uses:
   CBLAS   interface :  Fast vector & matrix operations
   LAPACKE interface :  Fast linear algebra routines
   SCALAPACK package :  Parallel linear algebra routines


Your calculation utilizes the semiempirical GFN2-xTB method
Please cite in your paper:
C. Bannwarth, Ehlert S., S. Grimme,  J. Chem. Theory Comput., 15, (2019), 1652.
   

----- Orbital basis set information -----
Your calculation utilizes the basis: def2-SVP
   F. Weigend and R. Ahlrichs, Phys. Chem. Chem. Phys. 7, 3297 (2005).

================================================================================
                                        WARNINGS
                       Please study these warnings very carefully!
================================================================================


WARNING: Geometry Optimization
  ===> : Switching off AutoStart
         For restart on a previous wavefunction, please use MOREAD

WARNING: Found dipole moment calculation with XTB calculation
  ===> : Switching off dipole moment calculation


WARNING: otool_xtb not available.
         Trying xtb instead   ... done.
  ===> : Now using xtb as program name.


INFO   : the flag for use of LIBINT has been found!

================================================================================
                                       INPUT FILE
================================================================================
NAME = pre_opt.inp
|  1> ! XTB2 Opt
|  2> * xyz 0 1
|  3> C     -3.164522   -0.248694    1.870725
|  4> C     -2.596877    0.117107    0.475059
|  5> C     -3.749090    0.521392   -0.477032
|  6> C     -1.905047   -1.125370   -0.104908
|  7> C     -2.650482   -2.316915   -0.284647
|  8> C     -2.062080   -3.468586   -0.800847
|  9> C     -0.719985   -3.463713   -1.153738
| 10> C      0.035869   -2.305363   -0.997703
| 11> C     -0.539691   -1.120191   -0.479371
| 12> N      0.255864    0.078099   -0.342660
| 13> C      1.608261    0.094699   -0.846143
| 14> C      1.872036    0.471062   -2.175871
| 15> C      0.801834    0.848058   -3.065140
| 16> N     -0.059093    1.150226   -3.776860
| 17> C      3.194245    0.478209   -2.638120
| 18> N      4.212899    0.124857   -1.809809
| 19> C      3.988817   -0.243172   -0.520762
| 20> C      5.051287   -0.602386    0.312349
| 21> C      4.797606   -0.977284    1.633878
| 22> C      3.481502   -0.987842    2.105364
| 23> N      2.457601   -0.635562    1.282343
| 24> C      2.675482   -0.265940   -0.009898
| 25> C     -0.298914    1.275088    0.246350
| 26> C      0.510976    2.421090    0.434312
| 27> C     -0.011050    3.588911    0.983054
| 28> C     -1.347149    3.643686    1.354015
| 29> C     -2.163416    2.528505    1.183410
| 30> C     -1.658986    1.322493    0.636745
| 31> H     -2.338006   -0.539136    2.555046
| 32> H     -3.884737   -1.090163    1.819414
| 33> H     -3.715123    0.596776    2.330544
| 34> H     -3.343210    0.783918   -1.478174
| 35> H     -4.485602   -0.298268   -0.604488
| 36> H     -4.315501    1.393920   -0.091789
| 37> H     -3.699161   -2.366327   -0.027477
| 38> H     -2.650844   -4.368172   -0.926977
| 39> H     -0.262611   -4.359834   -1.553234
| 40> H      1.076424   -2.347542   -1.288279
| 41> H      3.416874    0.764922   -3.658301
| 42> H      6.068342   -0.591955   -0.059501
| 43> H      5.613390   -1.257360    2.287628
| 44> H      3.274226   -1.276551    3.127028
| 45> H      1.556206    2.425412    0.157824
| 46> H      0.623516    4.455535    1.117628
| 47> H     -1.754015    4.553673    1.776142
| 48> H     -3.198064    2.618688    1.482872
| 49> *
| 50> 
| 51>                          ****END OF INPUT****
================================================================================

                       *****************************
                       * Geometry Optimization Run *
                       *****************************

Geometry optimization settings:
Update method            Update   .... BFGS
Choice of coordinates    CoordSys .... Z-matrix Internals
Initial Hessian          InHess   .... Almoef's Model

Convergence Tolerances:
Energy Change            TolE     ....  5.0000e-06 Eh
Max. Gradient            TolMAXG  ....  3.0000e-04 Eh/bohr
RMS Gradient             TolRMSG  ....  1.0000e-04 Eh/bohr
Max. Displacement        TolMAXD  ....  4.0000e-03 bohr
RMS Displacement         TolRMSD  ....  2.0000e-03 bohr
Strict Convergence                ....  False
------------------------------------------------------------------------------
                        ORCA OPTIMIZATION COORDINATE SETUP
------------------------------------------------------------------------------

The optimization will be done in new redundant internal coordinates
Making redundant internal coordinates   ...  (new redundants) done
Evaluating the initial hessian          ...  (Almloef) done
Evaluating the coordinates              ...  done
Calculating the B-matrix                .... done
Calculating the G-matrix                .... done
Diagonalizing the G-matrix              .... done
Small eigenvalue found = 5.225e-03
Small eigenvalue found = 6.088e-03
Small eigenvalue found = 1.386e-02
Small eigenvalue found = 1.838e-02
The first mode is                       ....  129
The number of degrees of freedom        ....  132

    -----------------------------------------------------------------
                    Redundant Internal Coordinates


    -----------------------------------------------------------------
         Definition                    Initial Value    Approx d2E/dq
    -----------------------------------------------------------------
      1. B(C   1,C   0)                  1.5505         0.346530   
      2. B(C   2,C   1)                  1.5484         0.349168   
      3. B(C   3,C   1)                  1.5358         0.365674   
      4. B(C   4,C   3)                  1.4170         0.565894   
      5. B(C   5,C   4)                  1.3925         0.619110   
      6. B(C   6,C   5)                  1.3877         0.630045   
      7. B(C   7,C   6)                  1.3919         0.620409   
      8. B(C   8,C   7)                  1.4158         0.568239   
      9. B(C   8,C   3)                  1.4158         0.568330   
     10. B(N   9,C   8)                  1.4448         0.457529   
     11. B(C  10,N   9)                  1.4432         0.460300   
     12. B(C  11,C  10)                  1.4069         0.587159   
     13. B(C  12,C  11)                  1.4416         0.516878   
     14. B(N  13,C  12)                  1.1572         1.316250   
     15. B(C  14,C  11)                  1.4007         0.600712   
     16. B(N  15,C  14)                  1.3596         0.625630   
     17. B(C  16,N  15)                  1.3592         0.626741   
     18. B(C  17,C  16)                  1.3971         0.608661   
     19. B(C  18,C  17)                  1.3969         0.609149   
     20. B(C  19,C  18)                  1.3980         0.606593   
     21. B(N  20,C  19)                  1.3601         0.624596   
     22. B(C  21,N  20)                  1.3616         0.621114   
     23. B(C  21,C  16)                  1.4094         0.581863   
     24. B(C  21,C  10)                  1.4030         0.595723   
     25. B(C  22,N   9)                  1.4448         0.457530   
     26. B(C  23,C  22)                  1.4158         0.568237   
     27. B(C  24,C  23)                  1.3919         0.620410   
     28. B(C  25,C  24)                  1.3877         0.630047   
     29. B(C  26,C  25)                  1.3925         0.619109   
     30. B(C  27,C  22)                  1.4158         0.568326   
     31. B(C  27,C   1)                  1.5358         0.365675   
     32. B(C  27,C  26)                  1.4170         0.565895   
     33. B(H  28,C   0)                  1.1117         0.332561   
     34. B(H  29,C   0)                  1.1088         0.336083   
     35. B(H  30,C   0)                  1.1088         0.336082   
     36. B(H  31,C   2)                  1.1117         0.332471   
     37. B(H  32,C   2)                  1.1093         0.335458   
     38. B(H  33,C   2)                  1.1093         0.335457   
     39. B(H  34,C   4)                  1.0809         0.372366   
     40. B(H  35,C   5)                  1.0825         0.370159   
     41. B(H  36,C   6)                  1.0825         0.370150   
     42. B(H  37,C   7)                  1.0812         0.371947   
     43. B(H  38,C  14)                  1.0828         0.369701   
     44. B(H  39,C  17)                  1.0830         0.369547   
     45. B(H  40,C  18)                  1.0823         0.370456   
     46. B(H  41,C  19)                  1.0817         0.371225   
     47. B(H  42,C  23)                  1.0812         0.371946   
     48. B(H  43,C  24)                  1.0825         0.370150   
     49. B(H  44,C  25)                  1.0825         0.370159   
     50. B(H  45,C  26)                  1.0809         0.372366   
     51. A(H  29,C   0,H  30)          105.9810         0.284630   
     52. A(H  28,C   0,H  30)          108.2487         0.284164   
     53. A(H  28,C   0,H  29)          108.2491         0.284165   
     54. A(C   1,C   0,H  28)          110.0942         0.316221   
     55. A(C   1,C   0,H  29)          112.0369         0.316764   
     56. A(C   1,C   0,H  30)          112.0370         0.316764   
     57. A(C   0,C   1,C  27)          108.2994         0.357423   
     58. A(C   2,C   1,C   3)          108.3147         0.357884   
     59. A(C   3,C   1,C  27)          113.5538         0.360710   
     60. A(C   0,C   1,C   2)          110.0393         0.354631   
     61. A(C   2,C   1,C  27)          108.3147         0.357884   
     62. A(C   0,C   1,C   3)          108.2992         0.357423   
     63. A(C   1,C   2,H  31)          110.1028         0.316598   
     64. A(C   1,C   2,H  33)          111.8258         0.317059   
     65. A(H  31,C   2,H  33)          108.2652         0.284070   
     66. A(H  32,C   2,H  33)          106.3843         0.284465   
     67. A(H  31,C   2,H  32)          108.2652         0.284070   
     68. A(C   1,C   2,H  32)          111.8259         0.317059   
     69. A(C   4,C   3,C   8)          118.4812         0.420416   
     70. A(C   1,C   3,C   8)          122.0959         0.389227   
     71. A(C   1,C   3,C   4)          119.4211         0.388935   
     72. A(C   3,C   4,H  34)          121.2431         0.349478   
     73. A(C   5,C   4,H  34)          117.4101         0.354831   
     74. A(C   3,C   4,C   5)          121.3467         0.426898   
     75. A(C   4,C   5,C   6)          120.0016         0.435211   
     76. A(C   6,C   5,H  35)          119.9536         0.355528   
     77. A(C   4,C   5,H  35)          120.0448         0.354473   
     78. A(C   5,C   6,C   7)          119.9730         0.435375   
     79. A(C   5,C   6,H  36)          119.9710         0.355526   
     80. A(C   7,C   6,H  36)          120.0557         0.354598   
     81. A(C   6,C   7,C   8)          121.1252         0.427375   
     82. A(C   6,C   7,H  37)          117.3890         0.354889   
     83. A(C   8,C   7,H  37)          121.4858         0.349655   
     84. A(C   7,C   8,N   9)          120.3352         0.402238   
     85. A(C   3,C   8,N   9)          120.5987         0.402249   
     86. A(C   3,C   8,C   7)          119.0653         0.420726   
     87. A(C   8,N   9,C  10)          119.5064         0.385195   
     88. A(C  10,N   9,C  22)          119.5065         0.385195   
     89. A(C   8,N   9,C  22)          120.9478         0.384791   
     90. A(N   9,C  10,C  11)          120.5641         0.405000   
     91. A(C  11,C  10,C  21)          119.3077         0.426774   
     92. A(N   9,C  10,C  21)          120.1282         0.406038   
     93. A(C  12,C  11,C  14)          119.7263         0.417787   
     94. A(C  10,C  11,C  14)          119.3571         0.427412   
     95. A(C  10,C  11,C  12)          120.9165         0.416093   
     96. L(C  11,C  12,N  13,C  14, 2) 180.0000         0.478433   
     97. L(C  11,C  12,N  13,C  14, 1) 180.1410         0.478433   
     98. A(C  11,C  14,N  15)          120.3215         0.429483   
     99. A(N  15,C  14,H  38)          119.2578         0.352840   
    100. A(C  11,C  14,H  38)          120.4207         0.352593   
    101. A(C  14,N  15,C  16)          121.6441         0.429939   
    102. A(C  17,C  16,C  21)          119.2321         0.427725   
    103. A(N  15,C  16,C  21)          120.1182         0.427171   
    104. A(N  15,C  16,C  17)          120.6497         0.430635   
    105. A(C  16,C  17,C  18)          119.6716         0.431257   
    106. A(C  18,C  17,H  39)          119.8662         0.353402   
    107. A(C  16,C  17,H  39)          120.4621         0.353354   
    108. A(C  17,C  18,C  19)          119.4743         0.430993   
    109. A(C  19,C  18,H  40)          120.2594         0.353297   
    110. A(C  17,C  18,H  40)          120.2663         0.353549   
    111. A(C  18,C  19,N  20)          120.1763         0.430107   
    112. A(N  20,C  19,H  41)          119.7625         0.352987   
    113. A(C  18,C  19,H  41)          120.0612         0.353421   
    114. A(C  19,N  20,C  21)          121.6105         0.429117   
    115. A(C  10,C  21,C  16)          119.2514         0.426082   
    116. A(C  16,C  21,N  20)          119.8351         0.426481   
    117. A(C  10,C  21,N  20)          120.9135         0.428284   
    118. A(C  23,C  22,C  27)          119.0653         0.420725   
    119. A(N   9,C  22,C  27)          120.5986         0.402249   
    120. A(N   9,C  22,C  23)          120.3352         0.402238   
    121. A(C  24,C  23,H  42)          117.3890         0.354889   
    122. A(C  22,C  23,H  42)          121.4857         0.349655   
    123. A(C  22,C  23,C  24)          121.1252         0.427375   
    124. A(C  23,C  24,H  43)          120.0557         0.354598   
    125. A(C  25,C  24,H  43)          119.9710         0.355526   
    126. A(C  23,C  24,C  25)          119.9730         0.435376   
    127. A(C  26,C  25,H  44)          120.0448         0.354473   
    128. A(C  24,C  25,H  44)          119.9536         0.355528   
    129. A(C  24,C  25,C  26)          120.0016         0.435211   
    130. A(C  25,C  26,C  27)          121.3468         0.426898   
    131. A(C  27,C  26,H  45)          121.2431         0.349478   
    132. A(C  25,C  26,H  45)          117.4100         0.354831   
    133. A(C  22,C  27,C  26)          118.4811         0.420415   
    134. A(C   1,C  27,C  26)          119.4212         0.388936   
    135. A(C   1,C  27,C  22)          122.0959         0.389227   
    136. D(C   2,C   1,C   0,H  28)    179.9987         0.009691   
    137. D(C   2,C   1,C   0,H  29)     59.4808         0.009691   
    138. D(C  27,C   1,C   0,H  29)    177.7054         0.009691   
    139. D(C   3,C   1,C   0,H  29)    -58.7436         0.009691   
    140. D(C   2,C   1,C   0,H  30)    -59.4839         0.009691   
    141. D(C  27,C   1,C   0,H  28)    -61.7768         0.009691   
    142. D(C   3,C   1,C   0,H  30)   -177.7083         0.009691   
    143. D(C  27,C   1,C   0,H  30)     58.7407         0.009691   
    144. D(C   3,C   1,C   0,H  28)     61.7743         0.009691   
    145. D(H  31,C   2,C   1,C  27)     61.7850         0.009826   
    146. D(H  32,C   2,C   1,C   3)     58.6196         0.009826   
    147. D(H  31,C   2,C   1,C   3)    -61.7850         0.009826   
    148. D(H  32,C   2,C   1,C   0)    -59.5953         0.009826   
    149. D(H  32,C   2,C   1,C  27)   -177.8104         0.009826   
    150. D(H  33,C   2,C   1,C  27)    -58.6195         0.009826   
    151. D(H  33,C   2,C   1,C   3)    177.8104         0.009826   
    152. D(H  33,C   2,C   1,C   0)     59.5956         0.009826   
    153. D(H  31,C   2,C   1,C   0)   -179.9999         0.009826   
    154. D(C   8,C   3,C   1,C  27)     -1.5870         0.010031   
    155. D(C   8,C   3,C   1,C   0)   -121.9135         0.010031   
    156. D(C   8,C   3,C   1,C   2)    118.7697         0.010031   
    157. D(C   4,C   3,C   1,C   2)    -60.7321         0.010031   
    158. D(C   4,C   3,C   1,C   0)     58.5847         0.010031   
    159. D(C   4,C   3,C   1,C  27)    178.9112         0.010031   
    160. D(H  34,C   4,C   3,C   1)      0.4191         0.021954   
    161. D(C   5,C   4,C   3,C   8)      0.8029         0.021954   
    162. D(C   5,C   4,C   3,C   1)   -179.6772         0.021954   
    163. D(H  34,C   4,C   3,C   8)   -179.1007         0.021954   
    164. D(C   6,C   5,C   4,H  34)    179.7634         0.026518   
    165. D(C   6,C   5,C   4,C   3)     -0.1439         0.026518   
    166. D(H  35,C   5,C   4,C   3)    179.8432         0.026518   
    167. D(H  35,C   5,C   4,H  34)     -0.2496         0.026518   
    168. D(H  36,C   6,C   5,H  35)     -0.1024         0.027523   
    169. D(H  36,C   6,C   5,C   4)    179.8847         0.027523   
    170. D(C   7,C   6,C   5,H  35)    179.6933         0.027523   
    171. D(C   7,C   6,C   5,C   4)     -0.3196         0.027523   
    172. D(H  37,C   7,C   6,H  36)     -0.0461         0.026637   
    173. D(H  37,C   7,C   6,C   5)   -179.8416         0.026637   
    174. D(C   8,C   7,C   6,H  36)    179.9048         0.026637   
    175. D(C   8,C   7,C   6,C   5)      0.1094         0.026637   
    176. D(N   9,C   8,C   7,H  37)      0.8460         0.022144   
    177. D(C   3,C   8,C   7,H  37)   -179.4934         0.022144   
    178. D(N   9,C   8,C   3,C   4)    178.6683         0.022151   
    179. D(N   9,C   8,C   3,C   1)     -0.8380         0.022151   
    180. D(C   7,C   8,C   3,C   4)     -0.9914         0.022151   
    181. D(N   9,C   8,C   7,C   6)   -179.1030         0.022144   
    182. D(C   7,C   8,C   3,C   1)    179.5023         0.022151   
    183. D(C   3,C   8,C   7,C   6)      0.5577         0.022144   
    184. D(C  22,N   9,C   8,C   7)   -176.8786         0.016489   
    185. D(C  22,N   9,C   8,C   3)      3.4660         0.016489   
    186. D(C  10,N   9,C   8,C   7)      5.4146         0.016489   
    187. D(C  10,N   9,C   8,C   3)   -174.2408         0.016489   
    188. D(C  21,C  10,N   9,C  22)     91.1297         0.016692   
    189. D(C  21,C  10,N   9,C   8)    -91.1302         0.016692   
    190. D(C  11,C  10,N   9,C  22)    -88.8702         0.016692   
    191. D(C  11,C  10,N   9,C   8)     88.8699         0.016692   
    192. D(C  14,C  11,C  10,N   9)    179.9998         0.023714   
    193. D(C  14,C  11,C  10,C  21)     -0.0001         0.023714   
    194. D(C  12,C  11,C  10,C  21)    179.9997         0.023714   
    195. D(C  12,C  11,C  10,N   9)     -0.0005         0.023714   
    196. D(H  38,C  14,C  11,C  10)    180.0000         0.024880   
    197. D(N  15,C  14,C  11,C  12)   -179.9997         0.024880   
    198. D(N  15,C  14,C  11,C  10)      0.0001         0.024880   
    199. D(H  38,C  14,C  11,C  12)      0.0002         0.024880   
    200. D(C  16,N  15,C  14,H  38)   -179.9999         0.028755   
    201. D(C  16,N  15,C  14,C  11)      0.0000         0.028755   
    202. D(C  21,C  16,N  15,C  14)     -0.0000         0.028865   
    203. D(C  17,C  16,N  15,C  14)    179.9998         0.028865   
    204. D(H  39,C  17,C  16,C  21)   -180.0000         0.025580   
    205. D(H  39,C  17,C  16,N  15)      0.0001         0.025580   
    206. D(C  18,C  17,C  16,C  21)     -0.0000         0.025580   
    207. D(C  18,C  17,C  16,N  15)   -179.9999         0.025580   
    208. D(H  40,C  18,C  17,H  39)     -0.0001         0.025623   
    209. D(H  40,C  18,C  17,C  16)    179.9999         0.025623   
    210. D(C  19,C  18,C  17,H  39)    180.0000         0.025623   
    211. D(C  19,C  18,C  17,C  16)     -0.0000         0.025623   
    212. D(H  41,C  19,C  18,H  40)      0.0001         0.025396   
    213. D(H  41,C  19,C  18,C  17)   -180.0000         0.025396   
    214. D(N  20,C  19,C  18,H  40)   -179.9999         0.025396   
    215. D(N  20,C  19,C  18,C  17)      0.0000         0.025396   
    216. D(C  21,N  20,C  19,H  41)   -180.0000         0.028653   
    217. D(C  21,N  20,C  19,C  18)      0.0000         0.028653   
    218. D(C  16,C  21,N  20,C  19)     -0.0000         0.028311   
    219. D(N  20,C  21,C  16,C  17)      0.0001         0.023268   
    220. D(N  20,C  21,C  16,N  15)    179.9999         0.023268   
    221. D(C  10,C  21,C  16,C  17)   -179.9999         0.023268   
    222. D(C  10,C  21,C  16,N  15)     -0.0000         0.023268   
    223. D(N  20,C  21,C  10,C  11)   -179.9998         0.024446   
    224. D(N  20,C  21,C  10,N   9)      0.0003         0.024446   
    225. D(C  10,C  21,N  20,C  19)    179.9999         0.028311   
    226. D(C  16,C  21,C  10,C  11)      0.0001         0.024446   
    227. D(C  16,C  21,C  10,N   9)   -179.9998         0.024446   
    228. D(C  27,C  22,N   9,C  10)    174.2407         0.016490   
    229. D(C  27,C  22,N   9,C   8)     -3.4660         0.016490   
    230. D(C  23,C  22,N   9,C  10)     -5.4144         0.016490   
    231. D(C  23,C  22,N   9,C   8)    176.8789         0.016490   
    232. D(H  42,C  23,C  22,C  27)    179.4934         0.022144   
    233. D(H  42,C  23,C  22,N   9)     -0.8462         0.022144   
    234. D(C  24,C  23,C  22,C  27)     -0.5577         0.022144   
    235. D(C  24,C  23,C  22,N   9)    179.1027         0.022144   
    236. D(H  43,C  24,C  23,H  42)      0.0462         0.026637   
    237. D(H  43,C  24,C  23,C  22)   -179.9047         0.026637   
    238. D(C  25,C  24,C  23,H  42)    179.8415         0.026637   
    239. D(C  25,C  24,C  23,C  22)     -0.1094         0.026637   
    240. D(H  44,C  25,C  24,H  43)      0.1023         0.027524   
    241. D(H  44,C  25,C  24,C  23)   -179.6931         0.027524   
    242. D(C  26,C  25,C  24,H  43)   -179.8848         0.027524   
    243. D(C  26,C  25,C  24,C  23)      0.3197         0.027524   
    244. D(H  45,C  26,C  25,H  44)      0.2495         0.026518   
    245. D(H  45,C  26,C  25,C  24)   -179.7633         0.026518   
    246. D(C  27,C  26,C  25,H  44)   -179.8433         0.026518   
    247. D(C  27,C  26,C  25,C  24)      0.1438         0.026518   
    248. D(C  22,C  27,C  26,H  45)    179.1006         0.021954   
    249. D(C  22,C  27,C  26,C  25)     -0.8030         0.021954   
    250. D(C   1,C  27,C  26,H  45)     -0.4190         0.021954   
    251. D(C  26,C  27,C  22,C  23)      0.9915         0.022151   
    252. D(C  26,C  27,C  22,N   9)   -178.6680         0.022151   
    253. D(C   1,C  27,C  22,C  23)   -179.5025         0.022151   
    254. D(C   1,C  27,C  22,N   9)      0.8380         0.022151   
    255. D(C  26,C  27,C   1,C   3)   -178.9115         0.010031   
    256. D(C  26,C  27,C   1,C   2)     60.7319         0.010031   
    257. D(C   1,C  27,C  26,C  25)    179.6774         0.021954   
    258. D(C  26,C  27,C   1,C   0)    -58.5851         0.010031   
    259. D(C  22,C  27,C   1,C   3)      1.5870         0.010031   
    260. D(C  22,C  27,C   1,C   2)   -118.7697         0.010031   
    261. D(C  22,C  27,C   1,C   0)    121.9134         0.010031   
    -----------------------------------------------------------------

Number of atoms                         .... 46
Number of degrees of freedom            .... 261

Time needed for optimization step       :     1.39 sec

         *************************************************************
         *                GEOMETRY OPTIMIZATION CYCLE   1            *
         *************************************************************
      -----------------------------------------------------------      
     |                   =====================                   |     
     |                           x T B                           |     
     |                   =====================                   |     
     |                         S. Grimme                         |     
     |          Mulliken Center for Theoretical Chemistry        |     
     |                    University of Bonn                     |     
      -----------------------------------------------------------      

   * xtb version 6.2.3 (830e466) compiled by 'ehlert@majestix' on 2020-03-16

   xtb is free software: you can redistribute it and/or modify it under
   the terms of the GNU Lesser General Public License as published by
   the Free Software Foundation, either version 3 of the License, or
   (at your option) any later version.
   
   xtb is distributed in the hope that it will be useful,
   but WITHOUT ANY WARRANTY; without even the implied warranty of
   MERCHANTABILITY or FITNESS FOR A PARTICULAR PURPOSE.  See the
   GNU Lesser General Public License for more details.
   
   Cite this work as:
   * S. Grimme, C. Bannwarth, P. Shushkov, J. Chem. Theory Comput., 2017,
     13, 1989-2009. DOI: 10.1021/acs.jctc.7b00118
   * C. Bannwarth, S. Ehlert and S. Grimme., J. Chem. Theory Comput., 2019,
     15, 1652-1671. DOI: 10.1021/acs.jctc.8b01176
   * P. Pracht, E. Caldeweyher, S. Ehlert, S. Grimme, ChemRxiv, 2019, preprint.
     DOI: 10.26434/chemrxiv.8326202.v1
   
   for DFT-D4:
   * E. Caldeweyher, C. Bannwarth and S. Grimme, J. Chem. Phys., 2017,
     147, 034112. DOI: 10.1063/1.4993215
   * E. Caldeweyher, S. Ehlert, A. Hansen, H. Neugebauer, S. Spicher,
     C. Bannwarth and S. Grimme, J. Chem. Phys., 2019, 150, 154122.
     DOI: 10.1063/1.5090222
   
   for sTDA-xTB:
   * S. Grimme and C. Bannwarth, J. Chem. Phys., 2016, 145, 054103.
     DOI: 10.1063/1.4959605
   
   in the mass-spec context:
   * V. Asgeirsson, C. Bauer and S. Grimme, Chem. Sci., 2017, 8, 4879.
     DOI: 10.1039/c7sc00601b
   
   for metadynamics refer to:
   * S. Grimme, J. Chem. Theory Comput., 2019, 155, 2847-2862
     DOI: 10.1021/acs.jctc.9b00143
   
   with help from (in alphabetical order)
   C. Bannwarth, F. Bohle, G. Brandenburg, E. Caldeweyher, M. Checinski,
   S. Dohm, S. Ehlert, S. Ehrlich, F. März, H. Neugebauer, J. Pisarek,
   P. Pracht, P. Shushkov, and S. Spicher.
   
 * started run on 2026/01/19 at 14:36:35.553     

           -------------------------------------------------
          |                Calculation Setup                |
           -------------------------------------------------

          program call               : /appl/orca_4.2.1/orca_4_2_1_linux_x86-64_openmpi314/xtb pre_opt_XTB.xyz --grad -c 0 -u 0 -P 1 --namespace pre_opt
          hostname                   : cnode14
          calculation namespace      : pre_opt
          coordinate file            : pre_opt_XTB.xyz
          omp threads                :                     1
          number of atoms            :                    46
          number of electrons        :                   134
          charge                     :                     0
          spin                       :                   0.0
          first test random number   :      0.13585805266534

########################################################################
[WARNING] Please study the warnings concerning your input carefully
-2- prog_main: XTBPATH is not set, using XTBHOME instead
-1- prog_main: XTBHOME is not set, using HOME instead
########################################################################
           ------------------------------------------------- 
          |                 G F N 2 - x T B                 |
          | Geometry, Frequencies, Noncovalent interactions |
          |            JCTC 2019 parametrisation            |
           ------------------------------------------------- 
             k(s)              :                1.8500
             k(p)              :                2.2300
             k(d)              :                2.2300
             k(f)              :                2.0000
             kEN (H0ij)        :               -2.0000
             D4 a1             :                0.5200
             D4 a2             :                5.0000
             D4 s6             :                1.0000
             D4 s8             :                2.7000
             D4 s9             :                5.0000
             alphaj            :                2.0000

  Z AO/shell   Hii/eV     exponent
  1     Wed Apr 25 08:07:45 CEST 2018   EN: 2.200 GM2: 0.406  GM3: 0.0800  RAES: 1.40
     1s    -10.707211    1.230000
  6     Wed Apr 25 08:07:45 CEST 2018   EN: 2.550 GM2: 0.538  GM3: 0.1500  RAES: 3.00
     2s    -13.970922    2.096432
     2p    -10.063292    1.800000
  7     Wed Apr 25 08:07:45 CEST 2018   EN: 3.040 GM2: 0.461  GM3:-0.0640  RAES: 1.90
     2s    -16.686243    2.339881
     2p    -12.523956    2.014332

           ------------------------------------------------- 
          |        Self-Consistent Charge Iterations        |
           ------------------------------------------------- 

          ...................................................
          :                      SETUP                      :
          :.................................................:
          :  # basis functions                 130          :
          :  # atomic orbitals                 130          :
          :  # shells                           74          :
          :  # electrons                       134          :
          :  max. iterations                   250          :
          :  Hamiltonian                  GFN2-xTB          :
          :  restarted?                      false          :
          :  GBSA solvation                  false          :
          :  PC potential                    false          :
          :  electronic temp.          300.0000000     K    :
          :  accuracy                    1.0000000          :
          :  -> integral cutoff          0.2500000E+02      :
          :  -> integral neglect         0.1000000E-07      :
          :  -> SCF convergence          0.1000000E-05 Eh   :
          :  -> wf. convergence          0.1000000E-03 e    :
          :  Broyden damping             0.4000000          :
          ...................................................

 iter      E             dE          RMSdq      gap      omega  full diag
   1    -73.3340311 -0.733340E+02  0.461E+00    1.56       0.0  T
   2    -73.3752654 -0.412343E-01  0.291E+00    1.30       1.0  T
   3    -73.2955769  0.796885E-01  0.186E+00    0.83       1.0  T
   4    -73.3962669 -0.100690E+00  0.544E-01    0.59       1.0  T
   5    -73.4067388 -0.104719E-01  0.163E-01    0.61       1.0  T
   6    -73.4071200 -0.381185E-03  0.824E-02    0.63       1.0  T
   7    -73.4073031 -0.183102E-03  0.292E-02    0.65       1.0  T
   8    -73.4073153 -0.121483E-04  0.154E-02    0.65       1.0  T
   9    -73.4073206 -0.531486E-05  0.612E-03    0.66       2.4  T
  10    -73.4073215 -0.909618E-06  0.176E-03    0.66       8.4  T
  11    -73.4073215 -0.487661E-07  0.767E-04    0.66      19.2  T
  12    -73.4073216 -0.198658E-07  0.358E-04    0.65      41.2  T

   *** convergence criteria satisfied after 12 iterations ***

         #    Occupation            Energy/Eh            Energy/eV
      -------------------------------------------------------------
         1        2.0000           -0.6975635             -18.9817
       ...           ...                  ...                  ...
        61        2.0000           -0.4106347             -11.1739
        62        2.0000           -0.4092923             -11.1374
        63        2.0000           -0.4018326             -10.9344
        64        2.0000           -0.3951514             -10.7526
        65        2.0000           -0.3903979             -10.6233
        66        2.0000           -0.3753374             -10.2135
        67        2.0000           -0.3499267              -9.5220 (HOMO)
        68        0.0000           -0.3258582              -8.8671 (LUMO)
        69                         -0.2854918              -7.7686
        70                         -0.2499920              -6.8026
        71                         -0.2286399              -6.2216
        72                         -0.2265943              -6.1659
       ...                                ...                  ...
       130                          1.0777532              29.3272
      -------------------------------------------------------------
                  HL-Gap            0.0240685 Eh            0.6549 eV
             Fermi-level           -0.3378924 Eh           -9.1945 eV

 SCC (total)                   0 d,  0 h,  0 min,  0.126 sec
 SCC setup                      ...        0 min,  0.001 sec (  0.569%)
 Dispersion                     ...        0 min,  0.001 sec (  1.066%)
 integral evaluation            ...        0 min,  0.053 sec ( 42.123%)
 zeroth order Hamiltonian       ...        0 min,  0.001 sec (  0.428%)
 iterations                     ...        0 min,  0.033 sec ( 26.471%)
 molecular gradient             ...        0 min,  0.037 sec ( 29.123%)
 printout                       ...        0 min,  0.000 sec (  0.183%)

         :::::::::::::::::::::::::::::::::::::::::::::::::::::
         ::                     SUMMARY                     ::
         :::::::::::::::::::::::::::::::::::::::::::::::::::::
         :: total energy             -72.224784875454 Eh    ::
         :: gradient norm              0.137171834150 Eh/a0 ::
         :: HOMO-LUMO gap              0.654937098162 eV    ::
         ::.................................................::
         :: SCC energy               -73.407321561955 Eh    ::
         :: -> isotropic ES            0.029960457184 Eh    ::
         :: -> anisotropic ES          0.011988623143 Eh    ::
         :: -> anisotropic XC          0.066709583078 Eh    ::
         :: -> dispersion             -0.062420765516 Eh    ::
         :: repulsion energy           1.181096131128 Eh    ::
         :: add. restraining           0.000000000000 Eh    ::
         :::::::::::::::::::::::::::::::::::::::::::::::::::::

           -------------------------------------------------
          |                Property Printout                |
           -------------------------------------------------

    * Orbital Energies and Occupations

         #    Occupation            Energy/Eh            Energy/eV
      -------------------------------------------------------------
         1        2.0000           -0.6975635             -18.9817
       ...           ...                  ...                  ...
        55        2.0000           -0.4398159             -11.9680
        56        2.0000           -0.4390667             -11.9476
        57        2.0000           -0.4360169             -11.8646
        58        2.0000           -0.4301051             -11.7038
        59        2.0000           -0.4278364             -11.6420
        60        2.0000           -0.4128422             -11.2340
        61        2.0000           -0.4106347             -11.1739
        62        2.0000           -0.4092923             -11.1374
        63        2.0000           -0.4018326             -10.9344
        64        2.0000           -0.3951514             -10.7526
        65        2.0000           -0.3903979             -10.6233
        66        2.0000           -0.3753374             -10.2135
        67        2.0000           -0.3499267              -9.5220 (HOMO)
        68        0.0000           -0.3258582              -8.8671 (LUMO)
        69                         -0.2854918              -7.7686
        70                         -0.2499920              -6.8026
        71                         -0.2286399              -6.2216
        72                         -0.2265943              -6.1659
        73                         -0.2261866              -6.1549
        74                         -0.2240643              -6.0971
        75                         -0.2237067              -6.0874
        76                         -0.1988332              -5.4105
        77                         -0.1579793              -4.2988
        78                         -0.1016482              -2.7660
       ...                                ...                  ...
       130                          1.0777532              29.3272
      -------------------------------------------------------------
                  HL-Gap            0.0240685 Eh            0.6549 eV
             Fermi-level           -0.3378924 Eh           -9.1945 eV

     #   Z        covCN         q      C6AA      α(0)
     1   6 C      3.747    -0.097    22.426     6.755
     2   6 C      3.899     0.024    20.114     6.375
     3   6 C      3.747    -0.098    22.430     6.755
     4   6 C      2.962    -0.005    28.141     8.701
     5   6 C      2.913    -0.034    28.857     8.809
     6   6 C      2.909    -0.041    29.026     8.834
     7   6 C      2.910    -0.033    28.812     8.802
     8   6 C      2.912    -0.050    29.235     8.866
     9   6 C      2.895     0.063    26.595     8.455
    10   7 N      2.733    -0.094    23.070     7.134
    11   6 C      2.911     0.097    25.853     8.338
    12   6 C      2.960     0.004    27.929     8.668
    13   6 C      1.903     0.115    28.283     8.589
    14   7 N      0.911    -0.210    25.577     7.315
    15   6 C      2.858     0.065    26.532     8.443
    16   7 N      1.839    -0.237    27.058     7.709
    17   6 C      2.925     0.091    25.986     8.360
    18   6 C      2.919    -0.015    28.388     8.737
    19   6 C      2.906    -0.030    28.750     8.792
    20   6 C      2.852     0.064    26.552     8.446
    21   7 N      1.839    -0.225    26.771     7.668
    22   6 C      2.925     0.081    26.196     8.393
    23   6 C      2.895     0.063    26.595     8.455
    24   6 C      2.912    -0.050    29.235     8.866
    25   6 C      2.910    -0.033    28.812     8.802
    26   6 C      2.909    -0.041    29.026     8.834
    27   6 C      2.913    -0.034    28.857     8.809
    28   6 C      2.962    -0.005    28.141     8.701
    29   1 H      0.921     0.032     2.563     2.504
    30   1 H      0.922     0.036     2.499     2.472
    31   1 H      0.922     0.036     2.499     2.472
    32   1 H      0.921     0.035     2.524     2.485
    33   1 H      0.922     0.037     2.493     2.469
    34   1 H      0.922     0.037     2.493     2.469
    35   1 H      0.926     0.036     2.507     2.476
    36   1 H      0.925     0.029     2.597     2.520
    37   1 H      0.925     0.030     2.586     2.515
    38   1 H      0.926     0.015     2.816     2.624
    39   1 H      0.925     0.063     2.169     2.303
    40   1 H      0.925     0.065     2.140     2.288
    41   1 H      0.925     0.049     2.332     2.388
    42   1 H      0.925     0.058     2.223     2.332
    43   1 H      0.926     0.015     2.816     2.624
    44   1 H      0.925     0.030     2.586     2.515
    45   1 H      0.925     0.029     2.597     2.520
    46   1 H      0.926     0.036     2.507     2.476

 Mol. C6AA /au·bohr⁶  :      30047.228587
 Mol. C8AA /au·bohr⁸  :     747357.296261
 Mol. α(0) /au        :        275.860795


Wiberg/Mayer (AO) data.
largest (>0.10) Wiberg bond orders for each atom
          total WBO             WBO to atom ...
     1  C   3.994        H   29 0.987    H   30 0.981    H   31 0.981    C    2 0.979
     2  C   3.989        C   28 0.983    C    4 0.983    C    1 0.979    C    3 0.978
     3  C   3.994        H   32 0.987    H   33 0.982    H   34 0.982    C    2 0.978
     4  C   3.982        C    5 1.413    C    9 1.354    C    2 0.983    C    7 0.105
     5  C   3.988        C    6 1.442    C    4 1.413    H   35 0.966    C    8 0.105
     6  C   3.983        C    5 1.442    C    7 1.424    H   36 0.971
     7  C   3.990        C    8 1.456    C    6 1.424    H   37 0.971    C    4 0.105
     8  C   3.983        C    7 1.456    C    9 1.357    H   38 0.968    C    5 0.105
     9  C   3.958        C    8 1.357    C    4 1.354    N   10 1.057
    10  N   3.441        C   23 1.057    C    9 1.057    C   11 1.013
    11  C   3.977        C   12 1.393    C   22 1.265    N   10 1.013    N   16 0.110
    12  C   3.985        C   11 1.393    C   15 1.298    C   13 1.076
    13  C   3.942        N   14 2.819    C   12 1.076
    14  N   2.990        C   13 2.819
    15  C   3.975        N   16 1.512    C   12 1.298    H   39 0.963
    16  N   3.054        C   15 1.512    C   17 1.290    C   11 0.110
    17  C   3.970        C   18 1.292    N   16 1.290    C   22 1.211
    18  C   3.985        C   19 1.517    C   17 1.292    H   40 0.966    N   21 0.124
    19  C   3.982        C   18 1.517    C   20 1.351    H   41 0.969
    20  C   3.974        N   21 1.505    C   19 1.351    H   42 0.964
    21  N   3.043        C   20 1.505    C   22 1.297    C   18 0.124
    22  C   3.982        N   21 1.297    C   11 1.265    C   17 1.211
    23  C   3.958        C   24 1.357    C   28 1.354    N   10 1.057
    24  C   3.983        C   25 1.456    C   23 1.357    H   43 0.968    C   27 0.105
    25  C   3.990        C   24 1.456    C   26 1.424    H   44 0.971    C   28 0.105
    26  C   3.983        C   27 1.442    C   25 1.424    H   45 0.971
    27  C   3.988        C   26 1.442    C   28 1.413    H   46 0.966    C   24 0.105
    28  C   3.982        C   27 1.413    C   23 1.354    C    2 0.983    C   25 0.105
    29  H   0.999        C    1 0.987
    30  H   0.998        C    1 0.981
    31  H   0.998        C    1 0.981
    32  H   0.999        C    3 0.987
    33  H   0.998        C    3 0.982
    34  H   0.998        C    3 0.982
    35  H   0.998        C    5 0.966
    36  H   0.998        C    6 0.971
    37  H   0.998        C    7 0.971
    38  H   0.999        C    8 0.968
    39  H   0.995        C   15 0.963
    40  H   0.995        C   18 0.966
    41  H   0.997        C   19 0.969
    42  H   0.996        C   20 0.964
    43  H   0.999        C   24 0.968
    44  H   0.998        C   25 0.971
    45  H   0.998        C   26 0.971
    46  H   0.998        C   27 0.966

molecular dipole:
                 x           y           z       tot (Debye)
 q only:        0.599      -0.339       0.920
   full:        1.087      -0.462       1.166       4.219
molecular quadrupole (traceless):
                xx          xy          yy          xz          yz          zz
 q only:       13.466      -2.298      -4.722       1.584       1.089      -8.744
  q+dip:       19.787      -2.502      -3.824       0.732       3.884     -15.963
   full:       15.032      -1.975      -1.159       1.485       4.011     -13.873


           -------------------------------------------------
          | TOTAL ENERGY              -72.224784875454 Eh   |
          | GRADIENT NORM               0.137171834150 Eh/α |
          | HOMO-LUMO GAP               0.654937098162 eV   |
           -------------------------------------------------

------------------------------------------------------------------------
 * finished run on 2026/01/19 at 14:36:36.315     
------------------------------------------------------------------------
 total:
 * wall-time:     0 d,  0 h,  0 min,  0.761 sec
 *  cpu-time:     0 d,  0 h,  0 min,  0.224 sec
 * ratio c/w:     0.294 speedup
 SCF:
 * wall-time:     0 d,  0 h,  0 min,  0.127 sec
 *  cpu-time:     0 d,  0 h,  0 min,  0.127 sec
 * ratio c/w:     0.998 speedup


-------------------------   --------------------
FINAL SINGLE POINT ENERGY         0.000000000000
-------------------------   --------------------

------------------------------------------------------------------------------
                         ORCA GEOMETRY RELAXATION STEP
------------------------------------------------------------------------------

Reading the OPT-File                    .... done
Getting information on internals        .... done
Copying old internal coords+grads       .... done
Making the new internal coordinates     .... (new redundants).... done
Validating the new internal coordinates .... (new redundants).... done
Calculating the B-matrix                .... done
Calculating the G,G- and P matrices     .... done
Transforming gradient to internals      .... done
Projecting the internal gradient        .... done
Number of atoms                         ....  46
Number of internal coordinates          .... 261
Current Energy                          ....     0.000000000 Eh
Current gradient norm                   ....     0.137171834 Eh/bohr
Maximum allowed component of the step   ....  0.300
Current trust radius                    ....  0.300
Evaluating the initial hessian          ....  (Almloef) done
Projecting the Hessian                  .... done
Forming the augmented Hessian           .... done
Diagonalizing the augmented Hessian     .... done
Last element of RFO vector              ....  0.963708360
Lowest eigenvalues of augmented Hessian:
 -0.040134751  0.009690683  0.009826497  0.011277724  0.016502214
Length of the computed step             ....  0.277010459
The final length of the internal step   ....  0.277010459
Converting the step to cartesian space:
 Initial RMS(Int)=    0.0171465169
Transforming coordinates:
 Iter   0:  RMS(Cart)=    0.0696335826 RMS(Int)=    0.3892964684
 Iter   1:  RMS(Cart)=    0.0004982537 RMS(Int)=    0.0002311946
 Iter   2:  RMS(Cart)=    0.0000133228 RMS(Int)=    0.0000051744
 Iter   3:  RMS(Cart)=    0.0000003330 RMS(Int)=    0.0000001484
 Iter   4:  RMS(Cart)=    0.0000000077 RMS(Int)=    0.0000000041
done
Storing new coordinates                 .... done

                                .--------------------.
          ----------------------|Geometry convergence|-------------------------
          Item                value                   Tolerance       Converged
          ---------------------------------------------------------------------
          RMS gradient        0.0092469144            0.0001000000      NO
          MAX gradient        0.0538372737            0.0003000000      NO
          RMS step            0.0171465169            0.0020000000      NO
          MAX step            0.0884960180            0.0040000000      NO
          ........................................................
          Max(Bonds)      0.0468      Max(Angles)    2.20
          Max(Dihed)        0.70      Max(Improp)    0.00
          ---------------------------------------------------------------------

The optimization has not yet converged - more geometry cycles are needed


    ---------------------------------------------------------------------------
                         Redundant Internal Coordinates
                            (Angstroem and degrees)

        Definition                    Value    dE/dq     Step     New-Value
    ----------------------------------------------------------------------------
     1. B(C   1,C   0)                1.5505  0.009635 -0.0132    1.5373   
     2. B(C   2,C   1)                1.5484  0.008573 -0.0117    1.5367   
     3. B(C   3,C   1)                1.5358  0.016423 -0.0194    1.5164   
     4. B(C   4,C   3)                1.4170  0.027117 -0.0237    1.3933   
     5. B(C   5,C   4)                1.3925  0.010792 -0.0085    1.3840   
     6. B(C   6,C   5)                1.3877  0.005513 -0.0042    1.3835   
     7. B(C   7,C   6)                1.3919  0.013727 -0.0110    1.3809   
     8. B(C   8,C   7)                1.4158  0.023296 -0.0205    1.3954   
     9. B(C   8,C   3)                1.4158  0.022191 -0.0195    1.3963   
    10. B(N   9,C   8)                1.4448  0.042435 -0.0468    1.3980   
    11. B(C  10,N   9)                1.4432  0.028012 -0.0296    1.4136   
    12. B(C  11,C  10)                1.4069  0.020709 -0.0173    1.3896   
    13. B(C  12,C  11)                1.4416  0.020289 -0.0193    1.4223   
    14. B(N  13,C  12)                1.1572  0.030495 -0.0119    1.1453   
    15. B(C  14,C  11)                1.4007 -0.009265  0.0069    1.4076   
    16. B(N  15,C  14)                1.3596  0.053837 -0.0436    1.3160   
    17. B(C  16,N  15)                1.3592  0.014173 -0.0114    1.3477   
    18. B(C  17,C  16)                1.3971  0.000984  0.0001    1.3973   
    19. B(C  18,C  17)                1.3969  0.023653 -0.0191    1.3778   
    20. B(C  19,C  18)                1.3980 -0.006303  0.0044    1.4024   
    21. B(N  20,C  19)                1.3601  0.052549 -0.0427    1.3173   
    22. B(C  21,N  20)                1.3616  0.019505 -0.0158    1.3458   
    23. B(C  21,C  16)                1.4094 -0.014139  0.0135    1.4229   
    24. B(C  21,C  10)                1.4030  0.001794 -0.0006    1.4024   
    25. B(C  22,N   9)                1.4448  0.042435 -0.0468    1.3980   
    26. B(C  23,C  22)                1.4158  0.023297 -0.0205    1.3954   
    27. B(C  24,C  23)                1.3919  0.013726 -0.0110    1.3809   
    28. B(C  25,C  24)                1.3877  0.005513 -0.0042    1.3835   
    29. B(C  26,C  25)                1.3925  0.010792 -0.0085    1.3840   
    30. B(C  27,C  22)                1.4158  0.022191 -0.0195    1.3963   
    31. B(C  27,C   1)                1.5358  0.016423 -0.0194    1.5164   
    32. B(C  27,C  26)                1.4170  0.027117 -0.0237    1.3933   
    33. B(H  28,C   0)                1.1117  0.014257 -0.0202    1.0914   
    34. B(H  29,C   0)                1.1088  0.013152 -0.0185    1.0903   
    35. B(H  30,C   0)                1.1088  0.013152 -0.0185    1.0903   
    36. B(H  31,C   2)                1.1117  0.014245 -0.0202    1.0915   
    37. B(H  32,C   2)                1.1093  0.013403 -0.0189    1.0904   
    38. B(H  33,C   2)                1.1093  0.013403 -0.0189    1.0904   
    39. B(H  34,C   4)                1.0809  0.002241 -0.0029    1.0780   
    40. B(H  35,C   5)                1.0825  0.002075 -0.0027    1.0798   
    41. B(H  36,C   6)                1.0825  0.002306 -0.0030    1.0795   
    42. B(H  37,C   7)                1.0812  0.000469 -0.0006    1.0806   
    43. B(H  38,C  14)                1.0828  0.004150 -0.0054    1.0775   
    44. B(H  39,C  17)                1.0830  0.002750 -0.0036    1.0794   
    45. B(H  40,C  18)                1.0823  0.002094 -0.0027    1.0796   
    46. B(H  41,C  19)                1.0817  0.003890 -0.0050    1.0767   
    47. B(H  42,C  23)                1.0812  0.000470 -0.0006    1.0806   
    48. B(H  43,C  24)                1.0825  0.002307 -0.0030    1.0795   
    49. B(H  44,C  25)                1.0825  0.002075 -0.0027    1.0798   
    50. B(H  45,C  26)                1.0809  0.002241 -0.0029    1.0780   
    51. A(H  29,C   0,H  30)          105.98 -0.003636    0.78    106.76   
    52. A(H  28,C   0,H  30)          108.25 -0.000849    0.06    108.31   
    53. A(H  28,C   0,H  29)          108.25 -0.000849    0.06    108.31   
    54. A(C   1,C   0,H  28)          110.09 -0.000186   -0.06    110.04   
    55. A(C   1,C   0,H  29)          112.04  0.002613   -0.40    111.64   
    56. A(C   1,C   0,H  30)          112.04  0.002613   -0.40    111.64   
    57. A(C   0,C   1,C  27)          108.30 -0.001490    0.19    108.49   
    58. A(C   2,C   1,C   3)          108.31 -0.001347    0.17    108.49   
    59. A(C   3,C   1,C  27)          113.55  0.004758   -0.97    112.59   
    60. A(C   0,C   1,C   2)          110.04  0.000917    0.27    110.31   
    61. A(C   2,C   1,C  27)          108.31 -0.001347    0.17    108.49   
    62. A(C   0,C   1,C   3)          108.30 -0.001490    0.19    108.49   
    63. A(C   1,C   2,H  31)          110.10 -0.000158   -0.05    110.05   
    64. A(C   1,C   2,H  33)          111.83  0.002176   -0.33    111.50   
    65. A(H  31,C   2,H  33)          108.27 -0.000675    0.04    108.31   
    66. A(H  32,C   2,H  33)          106.38 -0.003074    0.67    107.05   
    67. A(H  31,C   2,H  32)          108.27 -0.000675    0.04    108.31   
    68. A(C   1,C   2,H  32)          111.83  0.002176   -0.33    111.50   
    69. A(C   4,C   3,C   8)          118.48 -0.000790   -0.08    118.40   
    70. A(C   1,C   3,C   8)          122.10  0.002939   -0.03    122.07   
    71. A(C   1,C   3,C   4)          119.42 -0.002148    0.11    119.53   
    72. A(C   3,C   4,H  34)          121.24  0.003916   -0.60    120.65   
    73. A(C   5,C   4,H  34)          117.41 -0.003655    0.51    117.92   
    74. A(C   3,C   4,C   5)          121.35 -0.000261    0.09    121.44   
    75. A(C   4,C   5,C   6)          120.00  0.002494   -0.24    119.77   
    76. A(C   6,C   5,H  35)          119.95 -0.001929    0.22    120.17   
    77. A(C   4,C   5,H  35)          120.04 -0.000564    0.02    120.06   
    78. A(C   5,C   6,C   7)          119.97  0.002162   -0.22    119.75   
    79. A(C   5,C   6,H  36)          119.97 -0.002500    0.32    120.29   
    80. A(C   7,C   6,H  36)          120.06  0.000338   -0.10    119.96   
    81. A(C   6,C   7,C   8)          121.13  0.003318   -0.43    120.70   
    82. A(C   6,C   7,H  37)          117.39 -0.005940    0.84    118.23   
    83. A(C   8,C   7,H  37)          121.49  0.002622   -0.41    121.08   
    84. A(C   7,C   8,N   9)          120.34  0.008084   -0.98    119.35   
    85. A(C   3,C   8,N   9)          120.60 -0.001158    0.10    120.70   
    86. A(C   3,C   8,C   7)          119.07 -0.006926    0.88    119.94   
    87. A(C   8,N   9,C  10)          119.51  0.004165   -0.41    119.09   
    88. A(C  10,N   9,C  22)          119.51  0.004165   -0.41    119.09   
    89. A(C   8,N   9,C  22)          120.95 -0.008336    0.83    121.77   
    90. A(N   9,C  10,C  11)          120.56 -0.002228    0.17    120.74   
    91. A(C  11,C  10,C  21)          119.31  0.009300   -0.96    118.34   
    92. A(N   9,C  10,C  21)          120.13 -0.007071    0.79    120.92   
    93. A(C  12,C  11,C  14)          119.73 -0.001767    0.25    119.98   
    94. A(C  10,C  11,C  14)          119.36 -0.002493    0.25    119.61   
    95. A(C  10,C  11,C  12)          120.92  0.004260   -0.50    120.41   
    96. L(C  11,C  12,N  13,C  14, 2) 180.00  0.000000   -0.00    180.00   
    97. L(C  11,C  12,N  13,C  14, 1) 180.14  0.001628   -0.18    179.96   
    98. A(C  11,C  14,N  15)          120.32 -0.015565    1.79    122.11   
    99. A(N  15,C  14,H  38)          119.26  0.013480   -1.72    117.53   
   100. A(C  11,C  14,H  38)          120.42  0.002085   -0.06    120.36   
   101. A(C  14,N  15,C  16)          121.64  0.011954   -1.64    120.00   
   102. A(C  17,C  16,C  21)          119.23  0.009434   -0.92    118.31   
   103. A(N  15,C  16,C  21)          120.12 -0.012200    1.46    121.58   
   104. A(N  15,C  16,C  17)          120.65  0.002766   -0.54    120.11   
   105. A(C  16,C  17,C  18)          119.67  0.009464   -1.01    118.66   
   106. A(C  18,C  17,H  39)          119.87 -0.007634    0.93    120.79   
   107. A(C  16,C  17,H  39)          120.46 -0.001831    0.08    120.54   
   108. A(C  17,C  18,C  19)          119.47 -0.001507    0.13    119.61   
   109. A(C  19,C  18,H  40)          120.26  0.000225    0.01    120.27   
   110. A(C  17,C  18,H  40)          120.27  0.001281   -0.14    120.12   
   111. A(C  18,C  19,N  20)          120.18 -0.018023    2.09    122.26   
   112. A(N  20,C  19,H  41)          119.76  0.016974   -2.20    117.56   
   113. A(C  18,C  19,H  41)          120.06  0.001049    0.12    120.18   
   114. A(C  19,N  20,C  21)          121.61  0.013888   -1.90    119.71   
   115. A(C  10,C  21,C  16)          119.25  0.009005   -0.89    118.36   
   116. A(C  16,C  21,N  20)          119.84 -0.013257    1.61    121.44   
   117. A(C  10,C  21,N  20)          120.91  0.004252   -0.72    120.20   
   118. A(C  23,C  22,C  27)          119.07 -0.006926    0.88    119.94   
   119. A(N   9,C  22,C  27)          120.60 -0.001158    0.10    120.70   
   120. A(N   9,C  22,C  23)          120.34  0.008085   -0.98    119.35   
   121. A(C  24,C  23,H  42)          117.39 -0.005940    0.84    118.23   
   122. A(C  22,C  23,H  42)          121.49  0.002622   -0.41    121.08   
   123. A(C  22,C  23,C  24)          121.13  0.003318   -0.43    120.70   
   124. A(C  23,C  24,H  43)          120.06  0.000338   -0.10    119.96   
   125. A(C  25,C  24,H  43)          119.97 -0.002500    0.32    120.29   
   126. A(C  23,C  24,C  25)          119.97  0.002162   -0.22    119.75   
   127. A(C  26,C  25,H  44)          120.04 -0.000564    0.02    120.06   
   128. A(C  24,C  25,H  44)          119.95 -0.001929    0.22    120.17   
   129. A(C  24,C  25,C  26)          120.00  0.002494   -0.24    119.77   
   130. A(C  25,C  26,C  27)          121.35 -0.000261    0.09    121.44   
   131. A(C  27,C  26,H  45)          121.24  0.003916   -0.60    120.65   
   132. A(C  25,C  26,H  45)          117.41 -0.003655    0.51    117.92   
   133. A(C  22,C  27,C  26)          118.48 -0.000791   -0.08    118.40   
   134. A(C   1,C  27,C  26)          119.42 -0.002148    0.11    119.53   
   135. A(C   1,C  27,C  22)          122.10  0.002939   -0.03    122.07   
   136. D(C   2,C   1,C   0,H  28)    180.00  0.000000    0.00    180.00   
   137. D(C   2,C   1,C   0,H  29)     59.48 -0.000531    0.23     59.71   
   138. D(C  27,C   1,C   0,H  29)    177.71 -0.002516    0.70    178.41   
   139. D(C   3,C   1,C   0,H  29)    -58.74  0.001454   -0.25    -58.99   
   140. D(C   2,C   1,C   0,H  30)    -59.48  0.000531   -0.23    -59.71   
   141. D(C  27,C   1,C   0,H  28)    -61.78 -0.001985    0.47    -61.30   
   142. D(C   3,C   1,C   0,H  30)   -177.71  0.002516   -0.70   -178.41   
   143. D(C  27,C   1,C   0,H  30)     58.74 -0.001454    0.25     58.99   
   144. D(C   3,C   1,C   0,H  28)     61.77  0.001985   -0.47     61.30   
   145. D(H  31,C   2,C   1,C  27)     61.79  0.002073   -0.48     61.30   
   146. D(H  32,C   2,C   1,C   3)     58.62 -0.001599    0.28     58.90   
   147. D(H  31,C   2,C   1,C   3)    -61.79 -0.002073    0.48    -61.30   
   148. D(H  32,C   2,C   1,C   0)    -59.60  0.000475   -0.20    -59.80   
   149. D(H  32,C   2,C   1,C  27)   -177.81  0.002548   -0.68   -178.49   
   150. D(H  33,C   2,C   1,C  27)    -58.62  0.001599   -0.28    -58.90   
   151. D(H  33,C   2,C   1,C   3)    177.81 -0.002548    0.68    178.49   
   152. D(H  33,C   2,C   1,C   0)     59.60 -0.000475    0.20     59.80   
   153. D(H  31,C   2,C   1,C   0)   -180.00  0.000000   -0.00   -180.00   
   154. D(C   8,C   3,C   1,C  27)     -1.59 -0.000121   -0.02     -1.60   
   155. D(C   8,C   3,C   1,C   0)   -121.91 -0.000233    0.23   -121.68   
   156. D(C   8,C   3,C   1,C   2)    118.77  0.000275   -0.29    118.48   
   157. D(C   4,C   3,C   1,C   2)    -60.73  0.000282   -0.35    -61.08   
   158. D(C   4,C   3,C   1,C   0)     58.58 -0.000226    0.18     58.76   
   159. D(C   4,C   3,C   1,C  27)    178.91 -0.000113   -0.07    178.84   
   160. D(H  34,C   4,C   3,C   1)      0.42  0.000182   -0.09      0.33   
   161. D(C   5,C   4,C   3,C   8)      0.80  0.000281   -0.20      0.60   
   162. D(C   5,C   4,C   3,C   1)   -179.68  0.000293   -0.15   -179.82   
   163. D(H  34,C   4,C   3,C   8)   -179.10  0.000170   -0.15   -179.25   
   164. D(C   6,C   5,C   4,H  34)    179.76  0.000041    0.02    179.78   
   165. D(C   6,C   5,C   4,C   3)     -0.14 -0.000073    0.07     -0.07   
   166. D(H  35,C   5,C   4,C   3)    179.84 -0.000132    0.10    179.94   
   167. D(H  35,C   5,C   4,H  34)     -0.25 -0.000018    0.04     -0.21   
   168. D(H  36,C   6,C   5,H  35)     -0.10  0.000055   -0.04     -0.14   
   169. D(H  36,C   6,C   5,C   4)    179.88 -0.000004   -0.01    179.87   
   170. D(C   7,C   6,C   5,H  35)    179.69 -0.000009    0.00    179.70   
   171. D(C   7,C   6,C   5,C   4)     -0.32 -0.000067    0.03     -0.29   
   172. D(H  37,C   7,C   6,H  36)     -0.05  0.000024   -0.00     -0.05   
   173. D(H  37,C   7,C   6,C   5)   -179.84  0.000094   -0.04   -179.89   
   174. D(C   8,C   7,C   6,H  36)    179.90 -0.000079    0.05    179.95   
   175. D(C   8,C   7,C   6,C   5)      0.11 -0.000009    0.00      0.11   
   176. D(N   9,C   8,C   7,H  37)      0.85  0.000099   -0.03      0.82   
   177. D(C   3,C   8,C   7,H  37)   -179.49  0.000073   -0.08   -179.57   
   178. D(N   9,C   8,C   3,C   4)    178.67 -0.000255    0.16    178.83   
   179. D(N   9,C   8,C   3,C   1)     -0.84 -0.000241    0.11     -0.73   
   180. D(C   7,C   8,C   3,C   4)     -0.99 -0.000260    0.22     -0.78   
   181. D(N   9,C   8,C   7,C   6)   -179.10  0.000211   -0.08   -179.18   
   182. D(C   7,C   8,C   3,C   1)    179.50 -0.000246    0.16    179.66   
   183. D(C   3,C   8,C   7,C   6)      0.56  0.000184   -0.13      0.43   
   184. D(C  22,N   9,C   8,C   7)   -176.88  0.000023   -0.18   -177.06   
   185. D(C  22,N   9,C   8,C   3)      3.47  0.000069   -0.13      3.33   
   186. D(C  10,N   9,C   8,C   7)      5.41  0.000086   -0.20      5.21   
   187. D(C  10,N   9,C   8,C   3)   -174.24  0.000132   -0.15   -174.39   
   188. D(C  21,C  10,N   9,C  22)     91.13  0.000176   -0.02     91.11   
   189. D(C  21,C  10,N   9,C   8)    -91.13 -0.000176    0.02    -91.11   
   190. D(C  11,C  10,N   9,C  22)    -88.87  0.000176   -0.02    -88.89   
   191. D(C  11,C  10,N   9,C   8)     88.87 -0.000176    0.02     88.89   
   192. D(C  14,C  11,C  10,N   9)    180.00 -0.000000    0.00    180.00   
   193. D(C  14,C  11,C  10,C  21)     -0.00 -0.000000    0.00     -0.00   
   194. D(C  12,C  11,C  10,C  21)    180.00 -0.000000    0.00    180.00   
   195. D(C  12,C  11,C  10,N   9)     -0.00 -0.000000    0.00     -0.00   
   196. D(H  38,C  14,C  11,C  10)    180.00 -0.000000    0.00    180.00   
   197. D(N  15,C  14,C  11,C  12)   -180.00  0.000000   -0.00   -180.00   
   198. D(N  15,C  14,C  11,C  10)      0.00 -0.000000    0.00      0.00   
   199. D(H  38,C  14,C  11,C  12)      0.00  0.000000   -0.00      0.00   
   200. D(C  16,N  15,C  14,H  38)   -180.00  0.000000   -0.00   -180.00   
   201. D(C  16,N  15,C  14,C  11)      0.00  0.000000   -0.00     -0.00   
   202. D(C  21,C  16,N  15,C  14)     -0.00  0.000000   -0.00     -0.00   
   203. D(C  17,C  16,N  15,C  14)    180.00 -0.000000    0.00    180.00   
   204. D(H  39,C  17,C  16,C  21)   -180.00 -0.000000    0.00   -180.00   
   205. D(H  39,C  17,C  16,N  15)      0.00  0.000000   -0.00      0.00   
   206. D(C  18,C  17,C  16,C  21)     -0.00 -0.000000   -0.00     -0.00   
   207. D(C  18,C  17,C  16,N  15)   -180.00  0.000000   -0.00   -180.00   
   208. D(H  40,C  18,C  17,H  39)     -0.00 -0.000000    0.00     -0.00   
   209. D(H  40,C  18,C  17,C  16)    180.00 -0.000000    0.00    180.00   
   210. D(C  19,C  18,C  17,H  39)    180.00 -0.000000    0.00    180.00   
   211. D(C  19,C  18,C  17,C  16)     -0.00 -0.000000    0.00     -0.00   
   212. D(H  41,C  19,C  18,H  40)      0.00  0.000000   -0.00      0.00   
   213. D(H  41,C  19,C  18,C  17)   -180.00  0.000000   -0.00   -180.00   
   214. D(N  20,C  19,C  18,H  40)   -180.00  0.000000   -0.00   -180.00   
   215. D(N  20,C  19,C  18,C  17)      0.00  0.000000   -0.00      0.00   
   216. D(C  21,N  20,C  19,H  41)   -180.00  0.000000   -0.00   -180.00   
   217. D(C  21,N  20,C  19,C  18)      0.00 -0.000000    0.00      0.00   
   218. D(C  16,C  21,N  20,C  19)     -0.00 -0.000000    0.00     -0.00   
   219. D(N  20,C  21,C  16,C  17)      0.00  0.000000   -0.00      0.00   
   220. D(N  20,C  21,C  16,N  15)    180.00 -0.000000    0.00    180.00   
   221. D(C  10,C  21,C  16,C  17)   -180.00 -0.000000    0.00   -180.00   
   222. D(C  10,C  21,C  16,N  15)     -0.00 -0.000000    0.00      0.00   
   223. D(N  20,C  21,C  10,C  11)   -180.00  0.000000   -0.00   -180.00   
   224. D(N  20,C  21,C  10,N   9)      0.00  0.000000   -0.00      0.00   
   225. D(C  10,C  21,N  20,C  19)    180.00  0.000000   -0.00    180.00   
   226. D(C  16,C  21,C  10,C  11)      0.00  0.000000   -0.00      0.00   
   227. D(C  16,C  21,C  10,N   9)   -180.00  0.000000   -0.00   -180.00   
   228. D(C  27,C  22,N   9,C  10)    174.24 -0.000132    0.15    174.39   
   229. D(C  27,C  22,N   9,C   8)     -3.47 -0.000069    0.13     -3.33   
   230. D(C  23,C  22,N   9,C  10)     -5.41 -0.000086    0.20     -5.21   
   231. D(C  23,C  22,N   9,C   8)    176.88 -0.000022    0.18    177.06   
   232. D(H  42,C  23,C  22,C  27)    179.49 -0.000073    0.08    179.57   
   233. D(H  42,C  23,C  22,N   9)     -0.85 -0.000099    0.03     -0.82   
   234. D(C  24,C  23,C  22,C  27)     -0.56 -0.000184    0.13     -0.43   
   235. D(C  24,C  23,C  22,N   9)    179.10 -0.000211    0.08    179.18   
   236. D(H  43,C  24,C  23,H  42)      0.05 -0.000024    0.00      0.05   
   237. D(H  43,C  24,C  23,C  22)   -179.90  0.000079   -0.05   -179.95   
   238. D(C  25,C  24,C  23,H  42)    179.84 -0.000094    0.04    179.89   
   239. D(C  25,C  24,C  23,C  22)     -0.11  0.000009   -0.00     -0.11   
   240. D(H  44,C  25,C  24,H  43)      0.10 -0.000055    0.04      0.14   
   241. D(H  44,C  25,C  24,C  23)   -179.69  0.000009   -0.00   -179.70   
   242. D(C  26,C  25,C  24,H  43)   -179.88  0.000004    0.01   -179.87   
   243. D(C  26,C  25,C  24,C  23)      0.32  0.000067   -0.03      0.29   
   244. D(H  45,C  26,C  25,H  44)      0.25  0.000018   -0.04      0.21   
   245. D(H  45,C  26,C  25,C  24)   -179.76 -0.000041   -0.02   -179.78   
   246. D(C  27,C  26,C  25,H  44)   -179.84  0.000132   -0.09   -179.94   
   247. D(C  27,C  26,C  25,C  24)      0.14  0.000073   -0.07      0.07   
   248. D(C  22,C  27,C  26,H  45)    179.10 -0.000170    0.15    179.25   
   249. D(C  22,C  27,C  26,C  25)     -0.80 -0.000281    0.20     -0.60   
   250. D(C   1,C  27,C  26,H  45)     -0.42 -0.000182    0.09     -0.33   
   251. D(C  26,C  27,C  22,C  23)      0.99  0.000260   -0.22      0.78   
   252. D(C  26,C  27,C  22,N   9)   -178.67  0.000255   -0.16   -178.83   
   253. D(C   1,C  27,C  22,C  23)   -179.50  0.000246   -0.16   -179.66   
   254. D(C   1,C  27,C  22,N   9)      0.84  0.000241   -0.11      0.73   
   255. D(C  26,C  27,C   1,C   3)   -178.91  0.000113    0.07   -178.84   
   256. D(C  26,C  27,C   1,C   2)     60.73 -0.000282    0.35     61.08   
   257. D(C   1,C  27,C  26,C  25)    179.68 -0.000293    0.15    179.82   
   258. D(C  26,C  27,C   1,C   0)    -58.59  0.000226   -0.18    -58.76   
   259. D(C  22,C  27,C   1,C   3)      1.59  0.000121    0.02      1.60   
   260. D(C  22,C  27,C   1,C   2)   -118.77 -0.000275    0.29   -118.48   
   261. D(C  22,C  27,C   1,C   0)    121.91  0.000233   -0.23    121.68   
    ----------------------------------------------------------------------------

         *************************************************************
         *                GEOMETRY OPTIMIZATION CYCLE   2            *
         *************************************************************
      -----------------------------------------------------------      
     |                   =====================                   |     
     |                           x T B                           |     
     |                   =====================                   |     
     |                         S. Grimme                         |     
     |          Mulliken Center for Theoretical Chemistry        |     
     |                    University of Bonn                     |     
      -----------------------------------------------------------      

   * xtb version 6.2.3 (830e466) compiled by 'ehlert@majestix' on 2020-03-16

   xtb is free software: you can redistribute it and/or modify it under
   the terms of the GNU Lesser General Public License as published by
   the Free Software Foundation, either version 3 of the License, or
   (at your option) any later version.
   
   xtb is distributed in the hope that it will be useful,
   but WITHOUT ANY WARRANTY; without even the implied warranty of
   MERCHANTABILITY or FITNESS FOR A PARTICULAR PURPOSE.  See the
   GNU Lesser General Public License for more details.
   
   Cite this work as:
   * S. Grimme, C. Bannwarth, P. Shushkov, J. Chem. Theory Comput., 2017,
     13, 1989-2009. DOI: 10.1021/acs.jctc.7b00118
   * C. Bannwarth, S. Ehlert and S. Grimme., J. Chem. Theory Comput., 2019,
     15, 1652-1671. DOI: 10.1021/acs.jctc.8b01176
   * P. Pracht, E. Caldeweyher, S. Ehlert, S. Grimme, ChemRxiv, 2019, preprint.
     DOI: 10.26434/chemrxiv.8326202.v1
   
   for DFT-D4:
   * E. Caldeweyher, C. Bannwarth and S. Grimme, J. Chem. Phys., 2017,
     147, 034112. DOI: 10.1063/1.4993215
   * E. Caldeweyher, S. Ehlert, A. Hansen, H. Neugebauer, S. Spicher,
     C. Bannwarth and S. Grimme, J. Chem. Phys., 2019, 150, 154122.
     DOI: 10.1063/1.5090222
   
   for sTDA-xTB:
   * S. Grimme and C. Bannwarth, J. Chem. Phys., 2016, 145, 054103.
     DOI: 10.1063/1.4959605
   
   in the mass-spec context:
   * V. Asgeirsson, C. Bauer and S. Grimme, Chem. Sci., 2017, 8, 4879.
     DOI: 10.1039/c7sc00601b
   
   for metadynamics refer to:
   * S. Grimme, J. Chem. Theory Comput., 2019, 155, 2847-2862
     DOI: 10.1021/acs.jctc.9b00143
   
   with help from (in alphabetical order)
   C. Bannwarth, F. Bohle, G. Brandenburg, E. Caldeweyher, M. Checinski,
   S. Dohm, S. Ehlert, S. Ehrlich, F. März, H. Neugebauer, J. Pisarek,
   P. Pracht, P. Shushkov, and S. Spicher.
   
 * started run on 2026/01/19 at 14:36:37.847     

           -------------------------------------------------
          |                Calculation Setup                |
           -------------------------------------------------

          program call               : /appl/orca_4.2.1/orca_4_2_1_linux_x86-64_openmpi314/xtb pre_opt_XTB.xyz --grad -c 0 -u 0 -P 1 --namespace pre_opt
          hostname                   : cnode14
          calculation namespace      : pre_opt
          coordinate file            : pre_opt_XTB.xyz
          omp threads                :                     1
          number of atoms            :                    46
          number of electrons        :                   134
          charge                     :                     0
          spin                       :                   0.0
          first test random number   :      0.60248268684886

########################################################################
[WARNING] Please study the warnings concerning your input carefully
-2- prog_main: XTBPATH is not set, using XTBHOME instead
-1- prog_main: XTBHOME is not set, using HOME instead
########################################################################
           ------------------------------------------------- 
          |                 G F N 2 - x T B                 |
          | Geometry, Frequencies, Noncovalent interactions |
          |            JCTC 2019 parametrisation            |
           ------------------------------------------------- 
             k(s)              :                1.8500
             k(p)              :                2.2300
             k(d)              :                2.2300
             k(f)              :                2.0000
             kEN (H0ij)        :               -2.0000
             D4 a1             :                0.5200
             D4 a2             :                5.0000
             D4 s6             :                1.0000
             D4 s8             :                2.7000
             D4 s9             :                5.0000
             alphaj            :                2.0000

  Z AO/shell   Hii/eV     exponent
  1     Wed Apr 25 08:07:45 CEST 2018   EN: 2.200 GM2: 0.406  GM3: 0.0800  RAES: 1.40
     1s    -10.707211    1.230000
  6     Wed Apr 25 08:07:45 CEST 2018   EN: 2.550 GM2: 0.538  GM3: 0.1500  RAES: 3.00
     2s    -13.970922    2.096432
     2p    -10.063292    1.800000
  7     Wed Apr 25 08:07:45 CEST 2018   EN: 3.040 GM2: 0.461  GM3:-0.0640  RAES: 1.90
     2s    -16.686243    2.339881
     2p    -12.523956    2.014332

           ------------------------------------------------- 
          |        Self-Consistent Charge Iterations        |
           ------------------------------------------------- 

          ...................................................
          :                      SETUP                      :
          :.................................................:
          :  # basis functions                 130          :
          :  # atomic orbitals                 130          :
          :  # shells                           74          :
          :  # electrons                       134          :
          :  max. iterations                   250          :
          :  Hamiltonian                  GFN2-xTB          :
          :  restarted?                      false          :
          :  GBSA solvation                  false          :
          :  PC potential                    false          :
          :  electronic temp.          300.0000000     K    :
          :  accuracy                    1.0000000          :
          :  -> integral cutoff          0.2500000E+02      :
          :  -> integral neglect         0.1000000E-07      :
          :  -> SCF convergence          0.1000000E-05 Eh   :
          :  -> wf. convergence          0.1000000E-03 e    :
          :  Broyden damping             0.4000000          :
          ...................................................

 iter      E             dE          RMSdq      gap      omega  full diag
   1    -73.4627859 -0.734628E+02  0.447E+00    1.67       0.0  T
   2    -73.5128470 -0.500611E-01  0.283E+00    1.45       1.0  T
   3    -73.4582170  0.546300E-01  0.167E+00    0.93       1.0  T
   4    -73.5301116 -0.718946E-01  0.523E-01    0.72       1.0  T
   5    -73.5396263 -0.951467E-02  0.150E-01    0.73       1.0  T
   6    -73.5399855 -0.359272E-03  0.739E-02    0.75       1.0  T
   7    -73.5401232 -0.137667E-03  0.267E-02    0.76       1.0  T
   8    -73.5401348 -0.115749E-04  0.140E-02    0.77       1.1  T
   9    -73.5401395 -0.476358E-05  0.501E-03    0.77       2.9  T
  10    -73.5401400 -0.508816E-06  0.146E-03    0.77      10.1  T
  11    -73.5401401 -0.283487E-07  0.635E-04    0.77      23.2  T
  12    -73.5401401 -0.123052E-07  0.300E-04    0.77      49.1  T

   *** convergence criteria satisfied after 12 iterations ***

         #    Occupation            Energy/Eh            Energy/eV
      -------------------------------------------------------------
[...]
     |          Mulliken Center for Theoretical Chemistry        |     
     |                    University of Bonn                     |     
      -----------------------------------------------------------      

   * xtb version 6.2.3 (830e466) compiled by 'ehlert@majestix' on 2020-03-16

   xtb is free software: you can redistribute it and/or modify it under
   the terms of the GNU Lesser General Public License as published by
   the Free Software Foundation, either version 3 of the License, or
   (at your option) any later version.
   
   xtb is distributed in the hope that it will be useful,
   but WITHOUT ANY WARRANTY; without even the implied warranty of
   MERCHANTABILITY or FITNESS FOR A PARTICULAR PURPOSE.  See the
   GNU Lesser General Public License for more details.
   
   Cite this work as:
   * S. Grimme, C. Bannwarth, P. Shushkov, J. Chem. Theory Comput., 2017,
     13, 1989-2009. DOI: 10.1021/acs.jctc.7b00118
   * C. Bannwarth, S. Ehlert and S. Grimme., J. Chem. Theory Comput., 2019,
     15, 1652-1671. DOI: 10.1021/acs.jctc.8b01176
   * P. Pracht, E. Caldeweyher, S. Ehlert, S. Grimme, ChemRxiv, 2019, preprint.
     DOI: 10.26434/chemrxiv.8326202.v1
   
   for DFT-D4:
   * E. Caldeweyher, C. Bannwarth and S. Grimme, J. Chem. Phys., 2017,
     147, 034112. DOI: 10.1063/1.4993215
   * E. Caldeweyher, S. Ehlert, A. Hansen, H. Neugebauer, S. Spicher,
     C. Bannwarth and S. Grimme, J. Chem. Phys., 2019, 150, 154122.
     DOI: 10.1063/1.5090222
   
   for sTDA-xTB:
   * S. Grimme and C. Bannwarth, J. Chem. Phys., 2016, 145, 054103.
     DOI: 10.1063/1.4959605
   
   in the mass-spec context:
   * V. Asgeirsson, C. Bauer and S. Grimme, Chem. Sci., 2017, 8, 4879.
     DOI: 10.1039/c7sc00601b
   
   for metadynamics refer to:
   * S. Grimme, J. Chem. Theory Comput., 2019, 155, 2847-2862
     DOI: 10.1021/acs.jctc.9b00143
   
   with help from (in alphabetical order)
   C. Bannwarth, F. Bohle, G. Brandenburg, E. Caldeweyher, M. Checinski,
   S. Dohm, S. Ehlert, S. Ehrlich, F. März, H. Neugebauer, J. Pisarek,
   P. Pracht, P. Shushkov, and S. Spicher.
   
 * started run on 2026/01/19 at 14:36:57.675     

           -------------------------------------------------
          |                Calculation Setup                |
           -------------------------------------------------

          program call               : /appl/orca_4.2.1/orca_4_2_1_linux_x86-64_openmpi314/xtb pre_opt_XTB.xyz --grad -c 0 -u 0 -P 1 --namespace pre_opt
          hostname                   : cnode14
          calculation namespace      : pre_opt
          coordinate file            : pre_opt_XTB.xyz
          omp threads                :                     1
          number of atoms            :                    46
          number of electrons        :                   134
          charge                     :                     0
          spin                       :                   0.0
          first test random number   :      0.65169451962879

########################################################################
[WARNING] Please study the warnings concerning your input carefully
-2- prog_main: XTBPATH is not set, using XTBHOME instead
-1- prog_main: XTBHOME is not set, using HOME instead
########################################################################
           ------------------------------------------------- 
          |                 G F N 2 - x T B                 |
          | Geometry, Frequencies, Noncovalent interactions |
          |            JCTC 2019 parametrisation            |
           ------------------------------------------------- 
             k(s)              :                1.8500
             k(p)              :                2.2300
             k(d)              :                2.2300
             k(f)              :                2.0000
             kEN (H0ij)        :               -2.0000
             D4 a1             :                0.5200
             D4 a2             :                5.0000
             D4 s6             :                1.0000
             D4 s8             :                2.7000
             D4 s9             :                5.0000
             alphaj            :                2.0000

  Z AO/shell   Hii/eV     exponent
  1     Wed Apr 25 08:07:45 CEST 2018   EN: 2.200 GM2: 0.406  GM3: 0.0800  RAES: 1.40
     1s    -10.707211    1.230000
  6     Wed Apr 25 08:07:45 CEST 2018   EN: 2.550 GM2: 0.538  GM3: 0.1500  RAES: 3.00
     2s    -13.970922    2.096432
     2p    -10.063292    1.800000
  7     Wed Apr 25 08:07:45 CEST 2018   EN: 3.040 GM2: 0.461  GM3:-0.0640  RAES: 1.90
     2s    -16.686243    2.339881
     2p    -12.523956    2.014332

           ------------------------------------------------- 
          |        Self-Consistent Charge Iterations        |
           ------------------------------------------------- 

          ...................................................
          :                      SETUP                      :
          :.................................................:
          :  # basis functions                 130          :
          :  # atomic orbitals                 130          :
          :  # shells                           74          :
          :  # electrons                       134          :
          :  max. iterations                   250          :
          :  Hamiltonian                  GFN2-xTB          :
          :  restarted?                      false          :
          :  GBSA solvation                  false          :
          :  PC potential                    false          :
          :  electronic temp.          300.0000000     K    :
          :  accuracy                    1.0000000          :
          :  -> integral cutoff          0.2500000E+02      :
          :  -> integral neglect         0.1000000E-07      :
          :  -> SCF convergence          0.1000000E-05 Eh   :
          :  -> wf. convergence          0.1000000E-03 e    :
          :  Broyden damping             0.4000000          :
          ...................................................

 iter      E             dE          RMSdq      gap      omega  full diag
   1    -73.4729104 -0.734729E+02  0.445E+00    1.74       0.0  T
   2    -73.5261252 -0.532148E-01  0.282E+00    1.51       1.0  T
   3    -73.4761072  0.500180E-01  0.165E+00    0.98       1.0  T
   4    -73.5430587 -0.669515E-01  0.530E-01    0.77       1.0  T
   5    -73.5528001 -0.974137E-02  0.151E-01    0.77       1.0  T
   6    -73.5531817 -0.381574E-03  0.739E-02    0.80       1.0  T
   7    -73.5533174 -0.135739E-03  0.264E-02    0.81       1.0  T
   8    -73.5533290 -0.116136E-04  0.141E-02    0.82       1.0  T
   9    -73.5533339 -0.488989E-05  0.493E-03    0.82       3.0  T
  10    -73.5533344 -0.489218E-06  0.143E-03    0.82      10.3  T
  11    -73.5533344 -0.274939E-07  0.626E-04    0.82      23.5  T
  12    -73.5533345 -0.114013E-07  0.296E-04    0.82      49.9  T

   *** convergence criteria satisfied after 12 iterations ***

         #    Occupation            Energy/Eh            Energy/eV
      -------------------------------------------------------------
         1        2.0000           -0.7041277             -19.1603
       ...           ...                  ...                  ...
        61        2.0000           -0.4101160             -11.1598
        62        2.0000           -0.4087465             -11.1226
        63        2.0000           -0.4040044             -10.9935
        64        2.0000           -0.3983686             -10.8402
        65        2.0000           -0.3930432             -10.6952
        66        2.0000           -0.3817804             -10.3888
        67        2.0000           -0.3491307              -9.5003 (HOMO)
        68        0.0000           -0.3189226              -8.6783 (LUMO)
        69                         -0.2867928              -7.8040
        70                         -0.2464276              -6.7056
        71                         -0.2243369              -6.1045
        72                         -0.2236325              -6.0854
       ...                                ...                  ...
       130                          1.1614709              31.6052
      -------------------------------------------------------------
                  HL-Gap            0.0302081 Eh            0.8220 eV
             Fermi-level           -0.3340266 Eh           -9.0893 eV

 SCC (total)                   0 d,  0 h,  0 min,  0.117 sec
 SCC setup                      ...        0 min,  0.001 sec (  0.571%)
 Dispersion                     ...        0 min,  0.001 sec (  0.850%)
 integral evaluation            ...        0 min,  0.045 sec ( 38.388%)
 zeroth order Hamiltonian       ...        0 min,  0.001 sec (  0.437%)
 iterations                     ...        0 min,  0.032 sec ( 27.438%)
 molecular gradient             ...        0 min,  0.037 sec ( 32.086%)
 printout                       ...        0 min,  0.000 sec (  0.195%)

         :::::::::::::::::::::::::::::::::::::::::::::::::::::
         ::                     SUMMARY                     ::
         :::::::::::::::::::::::::::::::::::::::::::::::::::::
         :: total energy             -72.251887540226 Eh    ::
         :: gradient norm              0.000488588598 Eh/a0 ::
         :: HOMO-LUMO gap              0.822005419074 eV    ::
         ::.................................................::
         :: SCC energy               -73.553334454254 Eh    ::
         :: -> isotropic ES            0.028254661805 Eh    ::
         :: -> anisotropic ES          0.010800480069 Eh    ::
         :: -> anisotropic XC          0.061959730572 Eh    ::
         :: -> dispersion             -0.064228962209 Eh    ::
         :: repulsion energy           1.299924962048 Eh    ::
         :: add. restraining           0.000000000000 Eh    ::
         :::::::::::::::::::::::::::::::::::::::::::::::::::::

           -------------------------------------------------
          |                Property Printout                |
           -------------------------------------------------

    * Orbital Energies and Occupations

         #    Occupation            Energy/Eh            Energy/eV
      -------------------------------------------------------------
         1        2.0000           -0.7041277             -19.1603
       ...           ...                  ...                  ...
        55        2.0000           -0.4405955             -11.9892
        56        2.0000           -0.4401859             -11.9781
        57        2.0000           -0.4366427             -11.8817
        58        2.0000           -0.4364618             -11.8767
        59        2.0000           -0.4272019             -11.6248
        60        2.0000           -0.4186753             -11.3927
        61        2.0000           -0.4101160             -11.1598
        62        2.0000           -0.4087465             -11.1226
        63        2.0000           -0.4040044             -10.9935
        64        2.0000           -0.3983686             -10.8402
        65        2.0000           -0.3930432             -10.6952
        66        2.0000           -0.3817804             -10.3888
        67        2.0000           -0.3491307              -9.5003 (HOMO)
        68        0.0000           -0.3189226              -8.6783 (LUMO)
        69                         -0.2867928              -7.8040
        70                         -0.2464276              -6.7056
        71                         -0.2243369              -6.1045
        72                         -0.2236325              -6.0854
        73                         -0.2204544              -5.9989
        74                         -0.2194753              -5.9722
        75                         -0.2187676              -5.9530
        76                         -0.1911688              -5.2020
        77                         -0.1502422              -4.0883
        78                         -0.0969573              -2.6383
       ...                                ...                  ...
       130                          1.1614709              31.6052
      -------------------------------------------------------------
                  HL-Gap            0.0302081 Eh            0.8220 eV
             Fermi-level           -0.3340266 Eh           -9.0893 eV

     #   Z        covCN         q      C6AA      α(0)
     1   6 C      3.761    -0.104    22.543     6.768
     2   6 C      3.909     0.022    20.142     6.379
     3   6 C      3.761    -0.104    22.542     6.768
     4   6 C      2.980    -0.009    28.248     8.718
     5   6 C      2.929    -0.034    28.850     8.809
     6   6 C      2.918    -0.043    29.066     8.841
     7   6 C      2.920    -0.032    28.789     8.799
     8   6 C      2.924    -0.054    29.351     8.884
     9   6 C      2.931     0.063    26.585     8.456
    10   7 N      2.754    -0.065    22.498     7.045
    11   6 C      2.941     0.096    25.873     8.342
    12   6 C      2.966    -0.005    28.136     8.701
    13   6 C      1.909     0.118    28.201     8.576
    14   7 N      0.911    -0.215    25.682     7.329
    15   6 C      2.905     0.073    26.378     8.421
    16   7 N      1.838    -0.223    26.707     7.659
    17   6 C      2.972     0.083    26.143     8.387
    18   6 C      2.924    -0.016    28.420     8.742
    19   6 C      2.912    -0.033    28.816     8.802
    20   6 C      2.907     0.071    26.403     8.426
    21   7 N      1.838    -0.216    26.554     7.637
    22   6 C      2.977     0.074    26.337     8.418
    23   6 C      2.931     0.063    26.585     8.456
    24   6 C      2.924    -0.054    29.351     8.884
    25   6 C      2.920    -0.032    28.789     8.799
    26   6 C      2.918    -0.043    29.066     8.841
    27   6 C      2.929    -0.034    28.850     8.809
    28   6 C      2.980    -0.009    28.248     8.718
    29   1 H      0.925     0.034     2.525     2.485
    30   1 H      0.925     0.040     2.445     2.445
    31   1 H      0.925     0.040     2.445     2.445
    32   1 H      0.925     0.037     2.491     2.468
    33   1 H      0.925     0.041     2.441     2.443
    34   1 H      0.925     0.041     2.441     2.443
    35   1 H      0.926     0.034     2.536     2.490
    36   1 H      0.926     0.029     2.599     2.521
    37   1 H      0.926     0.029     2.607     2.525
    38   1 H      0.926     0.011     2.876     2.652
    39   1 H      0.925     0.058     2.225     2.333
    40   1 H      0.926     0.065     2.143     2.289
    41   1 H      0.926     0.051     2.312     2.378
    42   1 H      0.925     0.053     2.288     2.366
    43   1 H      0.926     0.011     2.876     2.652
    44   1 H      0.926     0.029     2.607     2.525
    45   1 H      0.926     0.029     2.599     2.521
    46   1 H      0.926     0.034     2.536     2.490

 Mol. C6AA /au·bohr⁶  :      30047.162738
 Mol. C8AA /au·bohr⁸  :     747434.262212
 Mol. α(0) /au        :        275.884898


Wiberg/Mayer (AO) data.
largest (>0.10) Wiberg bond orders for each atom
          total WBO             WBO to atom ...
     1  C   3.995        H   29 0.987    H   30 0.981    H   31 0.981    C    2 0.979
     2  C   3.991        C   28 0.985    C    4 0.985    C    1 0.979    C    3 0.976
     3  C   3.995        H   32 0.987    H   34 0.982    H   33 0.982    C    2 0.976
     4  C   3.984        C    5 1.428    C    9 1.336    C    2 0.985    C    7 0.104
     5  C   3.989        C    6 1.434    C    4 1.428    H   35 0.964    C    8 0.101
     6  C   3.981        C    5 1.434    C    7 1.426    H   36 0.971
     7  C   3.991        C    8 1.457    C    6 1.426    H   37 0.971    C    4 0.104
     8  C   3.982        C    7 1.457    C    9 1.353    H   38 0.964    C    5 0.101
     9  C   3.962        C    8 1.353    C    4 1.336    N   10 1.081
    10  N   3.493        C    9 1.081    C   23 1.081    C   11 1.015
    11  C   3.978        C   12 1.423    C   22 1.238    N   10 1.015
    12  C   3.986        C   11 1.423    C   15 1.239    C   13 1.095
    13  C   3.949        N   14 2.807    C   12 1.095
    14  N   2.999        C   13 2.807
    15  C   3.976        N   16 1.575    C   12 1.239    H   39 0.961
    16  N   3.078        C   15 1.575    C   17 1.272
    17  C   3.981        N   16 1.272    C   18 1.271    C   22 1.229
    18  C   3.985        C   19 1.561    C   17 1.271    H   40 0.965    N   21 0.106
    19  C   3.982        C   18 1.561    C   20 1.299    H   41 0.969
    20  C   3.976        N   21 1.556    C   19 1.299    H   42 0.962
    21  N   3.063        C   20 1.556    C   22 1.287    C   18 0.106
    22  C   3.981        N   21 1.287    C   11 1.238    C   17 1.229
    23  C   3.962        C   24 1.353    C   28 1.336    N   10 1.081
    24  C   3.982        C   25 1.457    C   23 1.353    H   43 0.964    C   27 0.101
    25  C   3.991        C   24 1.457    C   26 1.426    H   44 0.971    C   28 0.104
    26  C   3.981        C   27 1.434    C   25 1.426    H   45 0.971
    27  C   3.989        C   26 1.434    C   28 1.428    H   46 0.964    C   24 0.101
    28  C   3.984        C   27 1.428    C   23 1.336    C    2 0.985    C   25 0.104
    29  H   0.999        C    1 0.987
    30  H   0.998        C    1 0.981
    31  H   0.998        C    1 0.981
    32  H   0.999        C    3 0.987
    33  H   0.998        C    3 0.982
    34  H   0.998        C    3 0.982
    35  H   0.998        C    5 0.964
    36  H   0.999        C    6 0.971
    37  H   0.998        C    7 0.971
    38  H   0.999        C    8 0.964
    39  H   0.996        C   15 0.961
    40  H   0.995        C   18 0.965
    41  H   0.997        C   19 0.969
    42  H   0.997        C   20 0.962
    43  H   0.999        C   24 0.964
    44  H   0.998        C   25 0.971
    45  H   0.999        C   26 0.971
    46  H   0.998        C   27 0.964

molecular dipole:
                 x           y           z       tot (Debye)
 q only:        0.632      -0.349       0.941
   full:        1.138      -0.472       1.180       4.336
molecular quadrupole (traceless):
                xx          xy          yy          xz          yz          zz
 q only:       13.947      -2.300      -5.196       1.260       0.969      -8.750
  q+dip:       20.069      -2.327      -4.337      -0.117       3.736     -15.732
   full:       15.388      -1.889      -1.616       0.921       3.890     -13.772


           -------------------------------------------------
          | TOTAL ENERGY              -72.251887540226 Eh   |
          | GRADIENT NORM               0.000488588598 Eh/α |
          | HOMO-LUMO GAP               0.822005419074 eV   |
           -------------------------------------------------

------------------------------------------------------------------------
 * finished run on 2026/01/19 at 14:36:58.851     
------------------------------------------------------------------------
 total:
 * wall-time:     0 d,  0 h,  0 min,  1.175 sec
 *  cpu-time:     0 d,  0 h,  0 min,  0.210 sec
 * ratio c/w:     0.179 speedup
 SCF:
 * wall-time:     0 d,  0 h,  0 min,  0.117 sec
 *  cpu-time:     0 d,  0 h,  0 min,  0.117 sec
 * ratio c/w:     1.000 speedup


-------------------------   --------------------
FINAL SINGLE POINT ENERGY         0.000000000000
-------------------------   --------------------

                                *** OPTIMIZATION RUN DONE ***

Timings for individual modules:

Sum of individual times         ...       20.096 sec (=   0.335 min)
Geometry relaxation             ...        7.510 sec (=   0.125 min)  37.4 %
XTB module                      ...       12.586 sec (=   0.210 min)  62.6 %
                             ****ORCA TERMINATED NORMALLY****
TOTAL RUN TIME: 0 days 0 hours 0 minutes 28 seconds 780 msec
