 Entering Gaussian System, Link 0=g16
 Initial command:
 /appl/Gaussian16/AVX_revB01/g16/l1.exe "/home/junhkim/WORK/Review_DD/TADF-Design/data/td_dft/results/mol_595/Gau-1381725.inp" -scrdir="/home/junhkim/WORK/Review_DD/TADF-Design/data/td_dft/results/mol_595/"
 Entering Link 1 = /appl/Gaussian16/AVX_revB01/g16/l1.exe PID=   1381727.
  
 Copyright (c) 1988-2017, Gaussian, Inc.  All Rights Reserved.
  
 This is part of the Gaussian(R) 16 program.  It is based on
 the Gaussian(R) 09 system (copyright 2009, Gaussian, Inc.),
 the Gaussian(R) 03 system (copyright 2003, Gaussian, Inc.),
 the Gaussian(R) 98 system (copyright 1998, Gaussian, Inc.),
 the Gaussian(R) 94 system (copyright 1995, Gaussian, Inc.),
 the Gaussian 92(TM) system (copyright 1992, Gaussian, Inc.),
 the Gaussian 90(TM) system (copyright 1990, Gaussian, Inc.),
 the Gaussian 88(TM) system (copyright 1988, Gaussian, Inc.),
 the Gaussian 86(TM) system (copyright 1986, Carnegie Mellon
 University), and the Gaussian 82(TM) system (copyright 1983,
 Carnegie Mellon University). Gaussian is a federally registered
 trademark of Gaussian, Inc.
  
 This software contains proprietary and confidential information,
 including trade secrets, belonging to Gaussian, Inc.
  
 This software is provided under written license and may be
 used, copied, transmitted, or stored only in accord with that
 written license.
  
 The following legend is applicable only to US Government
 contracts under FAR:
  
                    RESTRICTED RIGHTS LEGEND
  
 Use, reproduction and disclosure by the US Government is
 subject to restrictions as set forth in subparagraphs (a)
 and (c) of the Commercial Computer Software - Restricted
 Rights clause in FAR 52.227-19.
  
 Gaussian, Inc.
 340 Quinnipiac St., Bldg. 40, Wallingford CT 06492
  
  
 ---------------------------------------------------------------
 Warning -- This program may not be used in any manner that
 competes with the business of Gaussian, Inc. or will provide
 assistance to any competitor of Gaussian, Inc.  The licensee
 of this program is prohibited from giving any competitor of
 Gaussian, Inc. access to this program.  By using this program,
 the user acknowledges that Gaussian, Inc. is engaged in the
 business of creating and licensing software in the field of
 computational chemistry and represents and warrants to the
 licensee that it is not a competitor of Gaussian, Inc. and that
 it will not use this program in any manner prohibited above.
 ---------------------------------------------------------------
  

 Cite this work as:
 Gaussian 16, Revision B.01,
 M. J. Frisch, G. W. Trucks, H. B. Schlegel, G. E. Scuseria, 
 M. A. Robb, J. R. Cheeseman, G. Scalmani, V. Barone, 
 G. A. Petersson, H. Nakatsuji, X. Li, M. Caricato, A. V. Marenich, 
 J. Bloino, B. G. Janesko, R. Gomperts, B. Mennucci, H. P. Hratchian, 
 J. V. Ortiz, A. F. Izmaylov, J. L. Sonnenberg, D. Williams-Young, 
 F. Ding, F. Lipparini, F. Egidi, J. Goings, B. Peng, A. Petrone, 
 T. Henderson, D. Ranasinghe, V. G. Zakrzewski, J. Gao, N. Rega, 
 G. Zheng, W. Liang, M. Hada, M. Ehara, K. Toyota, R. Fukuda, 
 J. Hasegawa, M. Ishida, T. Nakajima, Y. Honda, O. Kitao, H. Nakai, 
 T. Vreven, K. Throssell, J. A. Montgomery, Jr., J. E. Peralta, 
 F. Ogliaro, M. J. Bearpark, J. J. Heyd, E. N. Brothers, K. N. Kudin, 
 V. N. Staroverov, T. A. Keith, R. Kobayashi, J. Normand, 
 K. Raghavachari, A. P. Rendell, J. C. Burant, S. S. Iyengar, 
 J. Tomasi, M. Cossi, J. M. Millam, M. Klene, C. Adamo, R. Cammi, 
 J. W. Ochterski, R. L. Martin, K. Morokuma, O. Farkas, 
 J. B. Foresman, and D. J. Fox, Gaussian, Inc., Wallingford CT, 2016.
 
 ******************************************
 Gaussian 16:  ES64L-G16RevB.01 20-Dec-2017
                19-Jan-2026 
 ******************************************
 %OldChk=/home/junhkim/WORK/Review_DD/TADF-Design/data/td_dft/results/mol_595/opt
 .chk
 %nprocshared=16
 Will use up to   16 processors via shared memory.
 %mem=60GB
 Copying data from "/home/junhkim/WORK/Review_DD/TADF-Design/data/td_dft/results/mol_595/opt.chk" to current chk file "/home/junhkim/WORK/Review_DD/TADF-Design/data/td_dft/results/mol_595/Gau-1381727.chk"
 IOpt=  2 FromEx=T IUOpen= 4 IOptOp= 5 NList=   0 IFRang= 0 IUIn= 4 IUOut= 2.
 -----------------------------------------------------------------
 # b3lyp/6-31g* TD=(Nstates=1,50-50) Geom=Check Guess=Read SCF=XQC
 -----------------------------------------------------------------
 1/29=2,38=1,172=1/1;
 2/12=2,40=1/2;
 3/5=1,6=6,7=1,11=9,14=-4,25=1,30=1,74=-5,116=-2/1,2,3,8;
 4/5=1/1;
 5/5=2,8=3,13=1,38=6/2,8;
 8/6=1,10=2,108=1/1;
 9/41=1,42=1,48=2,70=2/14;
 6/7=2,8=2,9=2,10=2/1;
 99/5=1,9=1/99;
 ------------------
 TD-DFT calculation
 ------------------
 Structure from the checkpoint file:  "/home/junhkim/WORK/Review_DD/TADF-Design/data/td_dft/results/mol_595/Gau-1381727.chk"
 Charge =  0 Multiplicity = 1
 Redundant internal coordinates found in file.  (old form).
 C,0,-3.0268437824,-0.2946289086,1.9766396895
 C,0,-2.5697323012,0.0934290295,0.5442065789
 C,0,-3.8090870907,0.4767242389,-0.3097008797
 C,0,-1.8747177109,-1.1115025194,-0.1010778725
 C,0,-2.5708370559,-2.3210285131,-0.2271837745
 C,0,-2.0093270264,-3.4559812984,-0.8051972396
 C,0,-0.701330121,-3.3904600774,-1.2805480384
 C,0,0.0167660314,-2.2055491946,-1.1753465592
 C,0,-0.5556751788,-1.0609338812,-0.5905070946
 N,0,0.1880474084,0.1373293218,-0.5156513533
 C,0,1.5508112707,0.1205770209,-0.9124877119
 C,0,1.9285061389,0.4733533653,-2.2021456747
 C,0,0.9634679715,0.8676877242,-3.1834868681
 N,0,0.2234989448,1.1950877551,-4.0185817629
 C,0,3.3119437314,0.4432672611,-2.5618304675
 N,0,4.2758302351,0.0980062424,-1.7420738617
 C,0,3.9284750255,-0.2526065868,-0.4696207142
 C,0,4.9457128508,-0.6313037228,0.4427932554
 C,0,4.5905449516,-0.9833493001,1.7225675546
 C,0,3.2181811031,-0.9554485846,2.0857910747
 N,0,2.2414992759,-0.6106819773,1.2719107296
 C,0,2.5791261319,-0.259834798,0.0019113424
 C,0,-0.3192734972,1.2908255279,0.1220263106
 C,0,0.4838339848,2.4409124718,0.2324274297
 C,0,0.0009100917,3.5955421445,0.8360477796
 C,0,-1.2974222024,3.6261884271,1.3405287358
 C,0,-2.0876581294,2.4857354789,1.2291495014
 C,0,-1.6319531332,1.303554601,0.6306341876
 H,0,-2.1658118374,-0.5684396126,2.594749617
 H,0,-3.7153146516,-1.1455048589,1.9551488276
 H,0,-3.5462924907,0.53628276,2.4646983815
 H,0,-3.508303212,0.7541173392,-1.3250297912
 H,0,-4.5121726781,-0.3600569654,-0.3797361755
 H,0,-4.3427426019,1.3255243725,0.1309656636
 H,0,-3.5916407055,-2.375509034,0.139544005
 H,0,-2.5858147949,-4.3729559626,-0.8834220373
 H,0,-0.2332292548,-4.2578853794,-1.7378089129
 H,0,1.0313695297,-2.1710126869,-1.5545940393
 H,0,3.5950601013,0.7217593698,-3.5749323404
 H,0,5.9747336559,-0.6300320866,0.097196713
 H,0,5.3354209585,-1.2800400578,2.4546782966
 H,0,2.9247713476,-1.2324344056,3.0973383442
 H,0,1.4944924972,2.4362025491,-0.1587108082
 H,0,0.6439642693,4.4685860895,0.9061061659
 H,0,-1.6917125191,4.5217667942,1.8114579776
 H,0,-3.1000745313,2.5147205272,1.6211568156
 Recover connectivity data from disk.
                           ----------------------------
                           !    Current Parameters    !
                           ! (Angstroms and Degrees)  !
 --------------------------                            --------------------------
 ! Name  Definition              Value                                          !
 --------------------------------------------------------------------------------
 ! R1    R(1,2)                  1.5529                                         !
 ! R2    R(1,29)                 1.0947                                         !
 ! R3    R(1,30)                 1.0947                                         !
 ! R4    R(1,31)                 1.0947                                         !
 ! R5    R(2,3)                  1.5531                                         !
 ! R6    R(2,4)                  1.5334                                         !
 ! R7    R(2,28)                 1.5334                                         !
 ! R8    R(3,32)                 1.0947                                         !
 ! R9    R(3,33)                 1.0952                                         !
 ! R10   R(3,34)                 1.0952                                         !
 ! R11   R(4,5)                  1.4012                                         !
 ! R12   R(4,9)                  1.4078                                         !
 ! R13   R(5,6)                  1.3919                                         !
 ! R14   R(5,35)                 1.086                                          !
 ! R15   R(6,7)                  1.3932                                         !
 ! R16   R(6,36)                 1.086                                          !
 ! R17   R(7,8)                  1.3895                                         !
 ! R18   R(7,37)                 1.0866                                         !
 ! R19   R(8,9)                  1.4071                                         !
 ! R20   R(8,38)                 1.0837                                         !
 ! R21   R(9,10)                 1.4123                                         !
 ! R22   R(10,11)                1.4195                                         !
 ! R23   R(10,23)                1.4123                                         !
 ! R24   R(11,12)                1.3894                                         !
 ! R25   R(11,22)                1.4277                                         !
 ! R26   R(12,13)                1.4317                                         !
 ! R27   R(12,15)                1.4297                                         !
 ! R28   R(13,14)                1.1628                                         !
 ! R29   R(15,16)                1.3116                                         !
 ! R30   R(15,39)                1.0882                                         !
 ! R31   R(16,17)                1.3648                                         !
 ! R32   R(17,18)                1.418                                          !
 ! R33   R(17,22)                1.4294                                         !
 ! R34   R(18,19)                1.374                                          !
 ! R35   R(18,40)                1.0855                                         !
 ! R36   R(19,20)                1.4199                                         !
 ! R37   R(19,41)                1.0857                                         !
 ! R38   R(20,21)                1.3173                                         !
 ! R39   R(20,42)                1.0891                                         !
 ! R40   R(21,22)                1.3601                                         !
 ! R41   R(23,24)                1.4071                                         !
 ! R42   R(23,28)                1.4078                                         !
 ! R43   R(24,25)                1.3895                                         !
 ! R44   R(24,43)                1.0837                                         !
 ! R45   R(25,26)                1.3932                                         !
 ! R46   R(25,44)                1.0866                                         !
 ! R47   R(26,27)                1.3919                                         !
 ! R48   R(26,45)                1.086                                          !
 ! R49   R(27,28)                1.4012                                         !
 ! R50   R(27,46)                1.086                                          !
 ! A1    A(2,1,29)             110.5983                                         !
 ! A2    A(2,1,30)             111.1768                                         !
 ! A3    A(2,1,31)             111.1769                                         !
 ! A4    A(29,1,30)            108.1391                                         !
 ! A5    A(29,1,31)            108.1391                                         !
 ! A6    A(30,1,31)            107.4743                                         !
 ! A7    A(1,2,3)              109.5083                                         !
 ! A8    A(1,2,4)              108.98                                           !
 ! A9    A(1,2,28)             108.9805                                         !
 ! A10   A(3,2,4)              108.9202                                         !
 ! A11   A(3,2,28)             108.9203                                         !
 ! A12   A(4,2,28)             111.5095                                         !
 ! A13   A(2,3,32)             110.6853                                         !
 ! A14   A(2,3,33)             111.032                                          !
 ! A15   A(2,3,34)             111.032                                          !
 ! A16   A(32,3,33)            108.1012                                         !
 ! A17   A(32,3,34)            108.1012                                         !
 ! A18   A(33,3,34)            107.7626                                         !
 ! A19   A(2,4,5)              119.4057                                         !
 ! A20   A(2,4,9)              122.8704                                         !
 ! A21   A(5,4,9)              117.722                                          !
 ! A22   A(4,5,6)              122.7372                                         !
 ! A23   A(4,5,35)             118.6763                                         !
 ! A24   A(6,5,35)             118.5864                                         !
 ! A25   A(5,6,7)              118.8196                                         !
 ! A26   A(5,6,36)             120.2822                                         !
 ! A27   A(7,6,36)             120.8981                                         !
 ! A28   A(6,7,8)              119.9637                                         !
 ! A29   A(6,7,37)             120.6963                                         !
 ! A30   A(8,7,37)             119.3398                                         !
 ! A31   A(7,8,9)              120.9914                                         !
 ! A32   A(7,8,38)             118.981                                          !
 ! A33   A(9,8,38)             120.0274                                         !
 ! A34   A(4,9,8)              119.7655                                         !
 ! A35   A(4,9,10)             120.3611                                         !
 ! A36   A(8,9,10)             119.8666                                         !
 ! A37   A(9,10,11)            118.7338                                         !
 ! A38   A(9,10,23)            121.8532                                         !
 ! A39   A(11,10,23)           118.7337                                         !
 ! A40   A(10,11,12)           121.1645                                         !
 ! A41   A(10,11,22)           121.0366                                         !
 ! A42   A(12,11,22)           117.7989                                         !
 ! A43   A(11,12,13)           121.5295                                         !
 ! A44   A(11,12,15)           119.4207                                         !
 ! A45   A(13,12,15)           119.0498                                         !
 ! A46   A(12,15,16)           124.0141                                         !
 ! A47   A(12,15,39)           118.7237                                         !
 ! A48   A(16,15,39)           117.2621                                         !
 ! A49   A(15,16,17)           117.6001                                         !
 ! A50   A(16,17,18)           119.0742                                         !
 ! A51   A(16,17,22)           123.3064                                         !
 ! A52   A(18,17,22)           117.6194                                         !
 ! A53   A(17,18,19)           118.8369                                         !
 ! A54   A(17,18,40)           118.3515                                         !
 ! A55   A(19,18,40)           122.8116                                         !
 ! A56   A(18,19,20)           118.886                                          !
 ! A57   A(18,19,41)           121.3807                                         !
 ! A58   A(20,19,41)           119.7332                                         !
 ! A59   A(19,20,21)           124.3134                                         !
 ! A60   A(19,20,42)           119.5384                                         !
 ! A61   A(21,20,42)           116.1482                                         !
 ! A62   A(20,21,22)           117.4113                                         !
 ! A63   A(11,22,17)           117.8597                                         !
 ! A64   A(11,22,21)           119.2073                                         !
 ! A65   A(17,22,21)           122.9329                                         !
 ! A66   A(10,23,24)           119.8665                                         !
 ! A67   A(10,23,28)           120.3611                                         !
 ! A68   A(24,23,28)           119.7656                                         !
 ! A69   A(23,24,25)           120.9914                                         !
 ! A70   A(23,24,43)           120.0274                                         !
 ! A71   A(25,24,43)           118.981                                          !
 ! A72   A(24,25,26)           119.9637                                         !
 ! A73   A(24,25,44)           119.3398                                         !
 ! A74   A(26,25,44)           120.6963                                         !
 ! A75   A(25,26,27)           118.8196                                         !
 ! A76   A(25,26,45)           120.8981                                         !
 ! A77   A(27,26,45)           120.2822                                         !
 ! A78   A(26,27,28)           122.7373                                         !
 ! A79   A(26,27,46)           118.5863                                         !
 ! A80   A(28,27,46)           118.6763                                         !
 ! A81   A(2,28,23)            122.8704                                         !
 ! A82   A(2,28,27)            119.4058                                         !
 ! A83   A(23,28,27)           117.7218                                         !
 ! A84   L(12,13,14,1,-1)      182.8818                                         !
 ! A85   L(12,13,14,1,-2)      180.0                                            !
 ! D1    D(29,1,2,3)          -179.9992                                         !
 ! D2    D(29,1,2,4)            60.9472                                         !
 ! D3    D(29,1,2,28)          -60.9452                                         !
 ! D4    D(30,1,2,3)            59.8499                                         !
 ! D5    D(30,1,2,4)           -59.2036                                         !
 ! D6    D(30,1,2,28)          178.904                                          !
 ! D7    D(31,1,2,3)           -59.8483                                         !
 ! D8    D(31,1,2,4)          -178.9018                                         !
 ! D9    D(31,1,2,28)           59.2057                                         !
 ! D10   D(1,2,3,32)          -179.9999                                         !
 ! D11   D(1,2,3,33)           -59.9344                                         !
 ! D12   D(1,2,3,34)            59.9347                                         !
 ! D13   D(4,2,3,32)           -60.9095                                         !
 ! D14   D(4,2,3,33)            59.156                                          !
 ! D15   D(4,2,3,34)           179.0251                                         !
 ! D16   D(28,2,3,32)           60.9089                                         !
 ! D17   D(28,2,3,33)         -179.0257                                         !
 ! D18   D(28,2,3,34)          -59.1565                                         !
 ! D19   D(1,2,4,5)             57.83                                           !
 ! D20   D(1,2,4,9)           -122.6885                                         !
 ! D21   D(3,2,4,5)            -61.5896                                         !
 ! D22   D(3,2,4,9)            117.8918                                         !
 ! D23   D(28,2,4,5)           178.1773                                         !
 ! D24   D(28,2,4,9)            -2.3413                                         !
 ! D25   D(1,2,28,23)          122.6882                                         !
 ! D26   D(1,2,28,27)          -57.8311                                         !
 ! D27   D(3,2,28,23)         -117.8917                                         !
 ! D28   D(3,2,28,27)           61.589                                          !
 ! D29   D(4,2,28,23)            2.3413                                         !
 ! D30   D(4,2,28,27)         -178.178                                          !
 ! D31   D(2,4,5,6)            179.7777                                         !
 ! D32   D(2,4,5,35)            -0.1131                                         !
 ! D33   D(9,4,5,6)              0.2697                                         !
 ! D34   D(9,4,5,35)          -179.6211                                         !
 ! D35   D(2,4,9,8)           -179.7694                                         !
 ! D36   D(2,4,9,10)            -0.722                                          !
 ! D37   D(5,4,9,8)             -0.2797                                         !
 ! D38   D(5,4,9,10)           178.7676                                         !
 ! D39   D(4,5,6,7)             -0.0617                                         !
 ! D40   D(4,5,6,36)          -179.9417                                         !
 ! D41   D(35,5,6,7)           179.8292                                         !
 ! D42   D(35,5,6,36)           -0.0509                                         !
 ! D43   D(5,6,7,8)             -0.1377                                         !
 ! D44   D(5,6,7,37)          -179.9608                                         !
 ! D45   D(36,6,7,8)           179.7415                                         !
 ! D46   D(36,6,7,37)           -0.0816                                         !
 ! D47   D(6,7,8,9)              0.1222                                         !
 ! D48   D(6,7,8,38)          -179.7113                                         !
 ! D49   D(37,7,8,9)           179.9477                                         !
 ! D50   D(37,7,8,38)            0.1142                                         !
 ! D51   D(7,8,9,4)              0.0923                                         !
 ! D52   D(7,8,9,10)          -178.9598                                         !
 ! D53   D(38,8,9,4)           179.9242                                         !
 ! D54   D(38,8,9,10)            0.872                                          !
 ! D55   D(4,9,10,11)          174.6304                                         !
 ! D56   D(4,9,10,23)            4.1991                                         !
 ! D57   D(8,9,10,11)           -6.3232                                         !
 ! D58   D(8,9,10,23)         -176.7545                                         !
 ! D59   D(9,10,11,12)          94.6333                                         !
 ! D60   D(9,10,11,22)         -85.3668                                         !
 ! D61   D(23,10,11,12)        -94.633                                          !
 ! D62   D(23,10,11,22)         85.3669                                         !
 ! D63   D(9,10,23,24)         176.7547                                         !
 ! D64   D(9,10,23,28)          -4.1991                                         !
 ! D65   D(11,10,23,24)          6.3234                                         !
 ! D66   D(11,10,23,28)       -174.6304                                         !
 ! D67   D(10,11,12,13)          0.0                                            !
 ! D68   D(10,11,12,15)        180.0                                            !
 ! D69   D(22,11,12,13)       -180.0                                            !
 ! D70   D(22,11,12,15)          0.0                                            !
 ! D71   D(10,11,22,17)       -180.0                                            !
 ! D72   D(10,11,22,21)          0.0                                            !
 ! D73   D(12,11,22,17)          0.0                                            !
 ! D74   D(12,11,22,21)        180.0                                            !
 ! D75   D(11,12,15,16)          0.0                                            !
 ! D76   D(11,12,15,39)       -180.0                                            !
 ! D77   D(13,12,15,16)        180.0                                            !
 ! D78   D(13,12,15,39)          0.0                                            !
 ! D79   D(12,15,16,17)          0.0                                            !
 ! D80   D(39,15,16,17)        180.0                                            !
 ! D81   D(15,16,17,18)       -180.0                                            !
 ! D82   D(15,16,17,22)          0.0                                            !
 ! D83   D(16,17,18,19)        180.0                                            !
 ! D84   D(16,17,18,40)          0.0                                            !
 ! D85   D(22,17,18,19)          0.0                                            !
 ! D86   D(22,17,18,40)        180.0                                            !
 ! D87   D(16,17,22,11)          0.0                                            !
 ! D88   D(16,17,22,21)       -180.0                                            !
 ! D89   D(18,17,22,11)       -180.0                                            !
 ! D90   D(18,17,22,21)          0.0                                            !
 ! D91   D(17,18,19,20)          0.0                                            !
 ! D92   D(17,18,19,41)       -180.0                                            !
 ! D93   D(40,18,19,20)        180.0                                            !
 ! D94   D(40,18,19,41)          0.0                                            !
 ! D95   D(18,19,20,21)          0.0                                            !
 ! D96   D(18,19,20,42)       -180.0                                            !
 ! D97   D(41,19,20,21)        180.0                                            !
 ! D98   D(41,19,20,42)          0.0                                            !
 ! D99   D(19,20,21,22)          0.0                                            !
 ! D100  D(42,20,21,22)        180.0                                            !
 ! D101  D(20,21,22,11)        180.0                                            !
 ! D102  D(20,21,22,17)          0.0                                            !
 ! D103  D(10,23,24,25)        178.9594                                         !
 ! D104  D(10,23,24,43)         -0.8723                                         !
 ! D105  D(28,23,24,25)         -0.0926                                         !
 ! D106  D(28,23,24,43)       -179.9242                                         !
 ! D107  D(10,23,28,2)           0.722                                          !
 ! D108  D(10,23,28,27)       -178.767                                          !
 ! D109  D(24,23,28,2)         179.7691                                         !
 ! D110  D(24,23,28,27)          0.2802                                         !
 ! D111  D(23,24,25,26)         -0.1223                                         !
 ! D112  D(23,24,25,44)       -179.9476                                         !
 ! D113  D(43,24,25,26)        179.711                                          !
 ! D114  D(43,24,25,44)         -0.1142                                         !
 ! D115  D(24,25,26,27)          0.1379                                         !
 ! D116  D(24,25,26,45)       -179.7413                                         !
 ! D117  D(44,25,26,27)        179.9608                                         !
 ! D118  D(44,25,26,45)          0.0816                                         !
 ! D119  D(25,26,27,28)          0.0618                                         !
 ! D120  D(25,26,27,46)       -179.8289                                         !
 ! D121  D(45,26,27,28)        179.9417                                         !
 ! D122  D(45,26,27,46)          0.051                                          !
 ! D123  D(26,27,28,2)        -179.7774                                         !
 ! D124  D(26,27,28,23)         -0.2701                                         !
 ! D125  D(46,27,28,2)           0.1132                                         !
 ! D126  D(46,27,28,23)        179.6205                                         !
 --------------------------------------------------------------------------------
                          Input orientation:                          
 ---------------------------------------------------------------------
 Center     Atomic      Atomic             Coordinates (Angstroms)
 Number     Number       Type             X           Y           Z
 ---------------------------------------------------------------------
      1          6           0       -3.026844   -0.294629    1.976640
      2          6           0       -2.569732    0.093429    0.544207
      3          6           0       -3.809087    0.476724   -0.309701
      4          6           0       -1.874718   -1.111503   -0.101078
      5          6           0       -2.570837   -2.321029   -0.227184
      6          6           0       -2.009327   -3.455981   -0.805197
      7          6           0       -0.701330   -3.390460   -1.280548
      8          6           0        0.016766   -2.205549   -1.175347
      9          6           0       -0.555675   -1.060934   -0.590507
     10          7           0        0.188047    0.137329   -0.515651
     11          6           0        1.550811    0.120577   -0.912488
     12          6           0        1.928506    0.473353   -2.202146
     13          6           0        0.963468    0.867688   -3.183487
     14          7           0        0.223499    1.195088   -4.018582
     15          6           0        3.311944    0.443267   -2.561830
     16          7           0        4.275830    0.098006   -1.742074
     17          6           0        3.928475   -0.252607   -0.469621
     18          6           0        4.945713   -0.631304    0.442793
     19          6           0        4.590545   -0.983349    1.722568
     20          6           0        3.218181   -0.955449    2.085791
     21          7           0        2.241499   -0.610682    1.271911
     22          6           0        2.579126   -0.259835    0.001911
     23          6           0       -0.319273    1.290826    0.122026
     24          6           0        0.483834    2.440912    0.232427
     25          6           0        0.000910    3.595542    0.836048
     26          6           0       -1.297422    3.626188    1.340529
     27          6           0       -2.087658    2.485735    1.229150
     28          6           0       -1.631953    1.303555    0.630634
     29          1           0       -2.165812   -0.568440    2.594750
     30          1           0       -3.715315   -1.145505    1.955149
     31          1           0       -3.546292    0.536283    2.464698
     32          1           0       -3.508303    0.754117   -1.325030
     33          1           0       -4.512173   -0.360057   -0.379736
     34          1           0       -4.342743    1.325524    0.130966
     35          1           0       -3.591641   -2.375509    0.139544
     36          1           0       -2.585815   -4.372956   -0.883422
     37          1           0       -0.233229   -4.257885   -1.737809
     38          1           0        1.031370   -2.171013   -1.554594
     39          1           0        3.595060    0.721759   -3.574932
     40          1           0        5.974734   -0.630032    0.097197
     41          1           0        5.335421   -1.280040    2.454678
     42          1           0        2.924771   -1.232434    3.097338
     43          1           0        1.494492    2.436203   -0.158711
     44          1           0        0.643964    4.468586    0.906106
     45          1           0       -1.691713    4.521767    1.811458
     46          1           0       -3.100075    2.514721    1.621157
 ---------------------------------------------------------------------
                    Distance matrix (angstroms):
                    1          2          3          4          5
     1  C    0.000000
     2  C    1.552870   0.000000
     3  C    2.536581   1.553085   0.000000
     4  C    2.512287   1.533394   2.511528   0.000000
     5  C    3.028378   2.534689   3.060636   1.401227   0.000000
     6  C    4.332217   3.838393   4.353255   2.451629   1.391945
     7  C    5.059788   4.354095   5.055276   2.821637   2.397565
     8  C    4.780188   3.864212   4.751956   2.434893   2.758267
     9  C    3.644741   2.583903   3.609423   1.407825   2.404313
    10  N    4.090676   2.954755   4.016801   2.446723   3.706505
    11  C    5.429031   4.370535   5.405433   3.729699   4.839325
    12  C    6.527445   5.284027   6.041633   4.625015   5.652710
    13  C    6.625743   5.194100   5.584692   4.633976   5.603477
    14  N    6.980449   5.462127   5.525721   5.006966   5.877592
    15  C    7.830864   6.660628   7.468754   5.947610   6.906447
    16  N    8.204392   7.217259   8.219550   6.479585   7.417781
    17  C    7.373087   6.585916   7.773504   5.877973   6.824823
    18  C    8.125743   7.550989   8.856664   6.858911   7.733212
    19  C    7.652679   7.336045   8.764459   6.718759   7.541638
    20  C    6.280839   6.080836   7.561217   5.544760   6.381802
    21  N    5.324657   4.916632   6.347720   4.367970   5.322701
    22  C    5.943708   5.189376   6.438081   4.535710   5.551858
    23  C    3.644749   2.583904   3.609425   2.870603   4.270477
    24  C    4.780201   3.864214   4.751959   4.277107   5.676120
    25  C    5.059810   4.354098   5.055279   5.152907   6.538360
    26  C    4.332245   3.838397   4.353257   4.985701   6.280820
    27  C    3.028405   2.534694   3.060638   3.841220   5.045726
    28  C    2.512298   1.533396   2.511532   2.535121   3.841218
    29  H    1.094718   2.192247   3.496935   2.765346   3.346479
    30  H    1.094735   2.199562   2.787466   2.759895   2.730249
    31  H    1.094734   2.199563   2.787454   3.477437   4.044993
    32  H    3.497527   2.193506   1.094674   2.765357   3.397150
    33  H    2.786214   2.198271   1.095188   2.756536   2.763597
    34  H    2.786216   2.198270   1.095188   3.476218   4.070045
    35  H    2.832663   2.702537   2.895572   2.145562   1.086047
    36  H    5.000721   4.689027   5.034377   3.428527   2.154363
    37  H    6.108094   5.440660   6.102686   3.908081   3.390843
    38  H    5.697326   4.743479   5.655996   3.417691   3.841929
    39  H    8.700725   7.440885   8.095874   6.734017   7.647501
    40  H    9.201804   8.586682   9.854624   7.866703   8.717309
    41  H    8.433684   8.247895   9.713395   7.651562   8.413380
    42  H    6.128390   6.202094   7.737828   5.768846   6.514537
    43  H    5.697337   4.743480   5.655998   4.892965   6.258022
    44  H    6.108117   5.440663   6.102689   6.204480   7.597247
    45  H    5.000753   4.689032   5.034378   5.951891   7.193940
    46  H    2.832697   2.702543   2.895572   4.197271   5.203934
                    6          7          8          9         10
     6  C    0.000000
     7  C    1.393236   0.000000
     8  C    2.409490   1.389512   0.000000
     9  C    2.809884   2.433940   1.407079   0.000000
    10  N    4.221868   3.717709   2.440003   1.412289   0.000000
    11  C    5.047560   4.187480   2.798795   2.436581   1.419466
    12  C    5.735649   4.763868   3.447548   3.335052   2.446706
    13  C    5.760893   4.952227   3.791261   3.570843   2.872638
    14  N    6.078141   5.420275   4.437461   4.177133   3.659321
    15  C    6.826846   5.696097   4.449355   4.594259   3.746889
    16  N    7.280918   6.095451   4.875159   5.100264   4.267977
    17  C    6.755125   5.651444   4.428713   4.558027   3.760980
    18  C    7.609787   6.517050   5.421360   5.614050   4.913735
    19  C    7.487444   6.543457   5.550778   5.642687   5.064339
    20  C    6.475903   5.711750   4.737808   4.627709   4.140456
    21  N    5.520836   4.785651   3.671799   3.390503   2.823396
    22  C    5.649839   4.712421   3.425993   3.289331   2.478481
    23  C    5.123300   4.901797   3.744427   2.468676   1.412289
    24  C    6.485821   6.139920   4.877457   3.744426   2.440001
    25  C    7.513902   7.333304   6.139920   4.901797   3.717707
    26  C    7.434250   7.513902   6.485822   5.123300   4.221867
    27  C    6.280820   6.538361   5.676121   4.270478   3.706505
    28  C    4.985700   5.152907   4.277108   2.870604   2.446723
    29  H    4.463409   5.012628   4.653751   3.602909   3.964008
    30  H    3.983492   4.959200   4.985190   4.058428   4.794450
    31  H    5.384483   6.126989   5.784717   4.563899   4.794470
    32  H    4.499121   5.005856   4.605230   3.542873   3.833866
    33  H    4.003748   4.951497   4.954808   4.023621   4.728418
    34  H    5.402224   6.123134   5.760230   4.534047   4.728422
    35  H    2.136275   3.376490   3.844271   3.387945   4.585813
    36  H    1.085956   2.162011   3.399456   3.895736   5.307753
    37  H    2.160402   1.086569   2.142649   3.411858   4.581381
    38  H    3.385052   2.136446   1.083717   2.163435   2.668152
    39  H    7.518916   6.374442   5.208775   5.414184   4.616112
    40  H    8.517366   7.354452   6.292774   6.580642   5.869426
    41  H    8.325072   7.405954   6.505516   6.635222   6.109603
    42  H    6.672276   6.080426   5.259209   5.073768   4.734935
    43  H    6.885675   6.326939   4.976252   4.076714   2.668150
    44  H    8.530374   8.267762   7.019252   5.852741   4.581380
    45  H    8.401918   8.552467   7.556235   6.182763   5.307752
    46  H    6.536528   7.003215   6.309998   4.914339   4.585813
                   11         12         13         14         15
    11  C    0.000000
    12  C    1.389360   0.000000
    13  C    2.461825   1.431722   0.000000
    14  N    3.544595   2.593721   1.162811   0.000000
    15  C    2.434348   1.429747   2.466156   3.496548   0.000000
    16  N    2.848588   2.421256   3.693484   4.775716   1.311596
    17  C    2.447178   2.743818   4.172696   5.330834   2.289474
    18  C    3.731952   4.161671   5.590631   6.748250   3.584922
    19  C    4.171588   4.961029   6.375845   7.535083   4.693200
    20  C    3.595501   4.700121   6.014387   7.131360   4.854440
    21  N    2.404867   3.652693   4.865132   5.943269   4.117552
    22  C    1.427680   2.412206   3.745453   4.881613   2.757562
    23  C    2.436579   3.335049   3.570839   4.177129   4.594255
    24  C    2.798790   3.447537   3.791247   4.437447   4.449345
    25  C    4.187476   4.763854   4.952208   5.420254   5.696083
    26  C    5.047557   5.735636   5.760874   6.078118   6.826833
    27  C    4.839323   5.652702   5.603464   5.877576   6.906439
    28  C    3.729698   4.625013   4.633973   5.006963   5.947608
    29  H    5.156428   6.392103   6.726282   7.249482   7.590762
    30  H    6.128490   7.194200   7.235297   7.528485   8.503509
    31  H    6.128512   7.194221   7.235314   7.528497   8.503532
    32  H    5.115291   5.514259   4.843914   4.623421   6.938449
    33  H    6.105293   6.745227   6.273039   6.171406   8.162332
    34  H    6.105299   6.745233   6.273044   6.171411   8.162337
    35  H    5.812231   6.638641   6.504604   6.677908   7.931103
    36  H    6.107729   6.753136   6.734393   6.980299   7.797219
    37  H    4.799468   5.222387   5.458349   5.928359   5.945427
    38  H    2.435878   2.866505   3.448420   4.249061   3.612479
    39  H    3.410130   2.173396   2.664545   3.433408   1.088158
    40  H    4.599344   4.782927   6.174045   7.303930   3.913163
    41  H    5.255740   6.030544   7.450880   8.611684   5.677113
    42  H    4.449394   5.655686   6.906952   7.989121   5.914733
    43  H    2.435872   2.866491   3.448405   4.249046   3.612465
    44  H    4.799462   5.222371   5.458326   5.928333   5.945409
    45  H    6.107726   6.753121   6.734371   6.980272   7.797204
    46  H    5.812230   6.638633   6.504590   6.677891   7.931096
                   16         17         18         19         20
    16  N    0.000000
    17  C    1.364816   0.000000
    18  C    2.398808   1.417986   0.000000
    19  C    3.643091   2.403749   1.374010   0.000000
    20  C    4.108642   2.743836   2.406009   1.419892   0.000000
    21  N    3.704706   2.450926   2.828539   2.420741   1.317260
    22  C    2.459337   1.429383   2.435795   2.744073   2.287974
    23  C    5.100261   4.558025   5.614050   5.642687   4.627711
    24  C    4.875151   4.428710   5.421359   5.550780   4.737814
    25  C    6.095442   5.651441   6.517051   6.543463   5.711760
    26  C    7.280910   6.755124   7.609790   7.487453   6.475916
    27  C    7.417776   6.824822   7.733214   7.541645   6.381811
    28  C    6.479583   5.877972   6.858910   6.718760   5.544761
    29  H    7.794032   6.828649   7.430252   6.825043   5.421826
    30  H    8.892366   8.068723   8.807101   8.310697   6.937330
    31  H    8.892391   8.068750   8.807129   8.310726   6.937358
    32  H    7.822860   7.553204   8.747284   8.825983   7.733169
    33  H    8.904762   8.441810   9.497459   9.363100   8.135827
    34  H    8.904767   8.441815   9.497464   9.363104   8.135831
    35  H    8.459070   7.837725   8.718980   8.449393   7.223443
    36  H    8.234620   7.719099   8.513678   8.353488   7.360839
    37  H    6.269404   5.913573   6.687942   6.779793   6.118680
    38  H    3.963599   3.640147   4.656430   4.981773   4.417255
    39  H    2.052288   3.271623   4.449400   5.653485   5.915983
    40  H    2.607533   2.156596   1.085506   2.163941   3.414526
    41  H    4.542518   3.403916   2.149515   1.085749   2.173509
    42  H    5.197629   3.832842   3.390011   2.174130   1.089054
    43  H    3.963589   3.640142   4.656428   4.981775   4.417260
    44  H    6.269392   5.913569   6.687943   6.779801   6.118693
    45  H    8.234611   7.719098   8.513683   8.353500   7.360856
    46  H    8.459066   7.837727   8.718985   8.449403   7.223456
                   21         22         23         24         25
    21  N    0.000000
    22  C    1.360141   0.000000
    23  C    3.390505   3.289331   0.000000
    24  C    3.671804   3.425992   1.407079   0.000000
    25  C    4.785660   4.712421   2.433940   1.389512   0.000000
    26  C    5.520846   5.649841   2.809883   2.409490   1.393236
    27  C    5.322709   5.551860   2.404312   2.758267   2.397565
    28  C    4.367971   4.535710   1.407825   2.434894   2.821639
    29  H    4.601747   5.415947   3.602906   4.653750   5.012630
    30  H    6.019675   6.649777   4.563895   5.784722   6.127009
    31  H    6.019701   6.649803   4.058460   4.985235   4.959256
    32  H    6.454999   6.312342   3.542871   4.605226   5.005849
    33  H    6.957215   7.102269   4.534047   5.760231   6.123137
    34  H    6.957219   7.102273   4.023629   4.954819   4.951509
    35  H    6.198580   6.524828   4.914336   6.309995   7.003213
    36  H    6.488692   6.661696   6.182763   7.556234   8.552467
    37  H    5.337114   5.188485   5.852742   7.019252   8.267762
    38  H    3.447923   2.910474   4.076716   4.976253   6.326940
    39  H    5.205710   3.845707   5.414180   5.208762   6.374424
    40  H    3.913741   3.417057   6.580641   6.292771   7.354451
    41  H    3.379250   3.828060   6.635223   6.505519   7.405962
    42  H    2.045879   3.262988   5.073771   5.259217   6.080441
    43  H    3.447927   2.910472   2.163435   1.083717   2.136446
    44  H    5.337124   5.188486   3.411857   2.142649   1.086569
    45  H    6.488705   6.661699   3.895735   3.399455   2.162010
    46  H    6.198591   6.524832   3.387944   3.844271   3.376489
                   26         27         28         29         30
    26  C    0.000000
    27  C    1.391945   0.000000
    28  C    2.451630   1.401228   0.000000
    29  H    4.463415   3.346484   2.765342   0.000000
    30  H    5.384517   4.045027   3.477445   1.772866   0.000000
    31  H    3.983553   2.730304   2.759926   1.772865   1.765395
    32  H    4.499110   3.397141   2.765356   4.349266   3.796181
    33  H    5.402230   4.070051   3.476222   3.794259   2.589131
    34  H    4.003758   2.763603   2.756543   3.794253   3.134852
    35  H    6.536526   5.203931   4.197267   3.365490   2.196503
    36  H    8.401918   7.193940   5.951890   5.171888   4.444063
    37  H    8.530374   7.597248   6.204479   6.009821   5.953971
    38  H    6.885677   6.258024   4.892967   5.477888   5.991742
    39  H    7.518899   7.647490   6.734014   8.539159   9.354681
    40  H    8.517367   8.717310   7.866702   8.515283   9.880017
    41  H    8.325084   8.413388   7.651562   7.536212   9.065509
    42  H    6.672295   6.514550   5.768848   5.158248   6.738167
    43  H    3.385051   3.841928   3.417692   5.477887   6.666267
    44  H    2.160402   3.390843   3.908083   6.009824   7.184833
    45  H    1.085956   2.154363   3.428528   5.171897   6.019434
    46  H    2.136274   1.086046   2.145562   3.365502   3.726570
                   31         32         33         34         35
    31  H    0.000000
    32  H    3.796174   0.000000
    33  H    3.134830   1.772771   0.000000
    34  H    2.589120   1.772771   1.769381   0.000000
    35  H    3.726517   3.456368   2.275759   3.776490   0.000000
    36  H    6.019390   5.228086   4.479722   6.048839   2.459256
    37  H    7.184811   6.001389   5.945316   7.180173   4.283307
    38  H    6.666270   5.405341   5.949009   6.629326   4.927895
    39  H    9.354702   7.451233   8.781049   8.781055   8.662510
    40  H    9.880045   9.688477  10.501217  10.501222   9.724402
    41  H    9.065537   9.830333  10.288604  10.288608   9.287213
    42  H    6.738194   8.055320   8.255860   8.255863   7.246985
    43  H    5.991785   5.405338   6.629325   5.949019   7.007872
    44  H    5.954030   6.001381   7.180176   5.945328   8.085147
    45  H    4.444128   5.228072   6.048845   4.479730   7.346934
    46  H    2.196563   3.456355   3.776498   2.275759   5.133338
                   36         37         38         39         40
    36  H    0.000000
    37  H    2.505569   0.000000
    38  H    4.287546   2.447001   0.000000
    39  H    8.450063   6.544286   4.361468   0.000000
    40  H    9.394364   7.420739   5.435061   4.579816   0.000000
    41  H    9.135372   7.579867   5.949198   6.587280   2.527637
    42  H    7.488384   6.519584   5.109440   6.984795   4.320418
    43  H    7.971120   7.091501   4.836259   4.361453   5.435057
    44  H    9.581584   9.160298   7.091502   6.544263   7.420737
    45  H    9.336910   9.581584   7.971122   8.450043   9.394366
    46  H    7.346936   8.085150   7.007876   8.662498   9.724406
                   41         42         43         44         45
    41  H    0.000000
    42  H    2.495298   0.000000
    43  H    5.949201   5.109447   0.000000
    44  H    7.579878   6.519602   2.447001   0.000000
    45  H    9.135387   7.488407   4.287545   2.505569   0.000000
    46  H    9.287225   7.247003   4.927894   4.283307   2.459255
                   46
    46  H    0.000000
 Stoichiometry    C24H18N4
 Framework group  C1[X(C24H18N4)]
 Deg. of freedom   132
 Full point group                 C1      NOp   1
 Largest Abelian subgroup         C1      NOp   1
 Largest concise Abelian subgroup C1      NOp   1
                         Standard orientation:                         
 ---------------------------------------------------------------------
 Center     Atomic      Atomic             Coordinates (Angstroms)
 Number     Number       Type             X           Y           Z
 ---------------------------------------------------------------------
      1          6           0        3.600996   -0.000027   -1.848692
      2          6           0        2.993429   -0.000002   -0.419613
      3          6           0        4.137735    0.000009    0.630452
      4          6           0        2.150261   -1.267560   -0.236143
      5          6           0        2.749211   -2.522863   -0.406182
      6          6           0        2.050964   -3.717125   -0.252231
      7          6           0        0.700406   -3.666651    0.086224
      8          6           0        0.075564   -2.438727    0.266554
      9          6           0        0.786084   -1.234336    0.110106
     10          7           0        0.132901    0.000003    0.320627
     11          6           0       -1.267164    0.000005    0.554513
     12          6           0       -1.780439    0.000022    1.845587
     13          6           0       -0.923006    0.000038    2.992163
     14          7           0       -0.274318    0.000050    3.957219
     15          6           0       -3.197160    0.000024    2.038145
     16          7           0       -4.070600    0.000011    1.059684
     17          6           0       -3.589384   -0.000005   -0.217482
     18          6           0       -4.506149   -0.000019   -1.299252
     19          6           0       -4.016371   -0.000035   -2.583004
     20          6           0       -2.610309   -0.000037   -2.780692
     21          7           0       -1.723495   -0.000025   -1.806662
     22          6           0       -2.194756   -0.000009   -0.530772
     23          6           0        0.786081    1.234340    0.110079
     24          6           0        0.075557    2.438730    0.266506
     25          6           0        0.700395    3.666653    0.086158
     26          6           0        2.050955    3.717125   -0.252291
     27          6           0        2.749205    2.522863   -0.406223
     28          6           0        2.150258    1.267561   -0.236172
     29          1           0        2.808639   -0.000021   -2.604058
     30          1           0        4.227567   -0.882737   -2.012019
     31          1           0        4.227597    0.882657   -2.012039
     32          1           0        3.730224    0.000024    1.646447
     33          1           0        4.773586   -0.884685    0.518881
     34          1           0        4.773591    0.884696    0.518857
     35          1           0        3.802494   -2.566669   -0.667283
     36          1           0        2.555480   -4.668455   -0.392710
     37          1           0        0.126244   -4.580147    0.214656
     38          1           0       -0.974373   -2.418127    0.534229
     39          1           0       -3.586830    0.000037    3.054140
     40          1           0       -5.568214   -0.000016   -1.074884
     41          1           0       -4.680882   -0.000046   -3.441652
     42          1           0       -2.210546   -0.000050   -3.793721
     43          1           0       -0.974380    2.418132    0.534181
     44          1           0        0.126231    4.580151    0.214576
     45          1           0        2.555469    4.668455   -0.392780
     46          1           0        3.802489    2.566669   -0.667317
 ---------------------------------------------------------------------
 Rotational constants (GHZ):           0.2612915           0.1631109           0.1467905
 Standard basis: 6-31G(d) (6D, 7F)
 There are   456 symmetry adapted cartesian basis functions of A   symmetry.
 There are   456 symmetry adapted basis functions of A   symmetry.
   456 basis functions,   856 primitive gaussians,   456 cartesian basis functions
    95 alpha electrons       95 beta electrons
       nuclear repulsion energy      2501.0572492118 Hartrees.
 NAtoms=   46 NActive=   46 NUniq=   46 SFac= 1.00D+00 NAtFMM=   60 NAOKFM=F Big=F
 Integral buffers will be    131072 words long.
 Regular integral format.
 Two-electron integral symmetry is turned on.
 One-electron integrals computed using PRISM.
 NBasis=   456 RedAO= T EigKep=  3.09D-04  NBF=   456
 NBsUse=   456 1.00D-06 EigRej= -1.00D+00 NBFU=   456
 Initial guess from the checkpoint file:  "/home/junhkim/WORK/Review_DD/TADF-Design/data/td_dft/results/mol_595/Gau-1381727.chk"
 B after Tr=     0.000000   -0.000000   -0.000000
         Rot=    1.000000   -0.000000    0.000000    0.000000 Ang=   0.00 deg.
 Requested convergence on RMS density matrix=1.00D-08 within  32 cycles.
 Requested convergence on MAX density matrix=1.00D-06.
 Requested convergence on             energy=1.00D-06.
 No special actions if energy rises.
 SCF Done:  E(RB3LYP) =  -1144.39205666     A.U. after    1 cycles
            NFock=  1  Conv=0.32D-08     -V/T= 2.0096
 QCSCF skips out because SCF is already converged.
 DoSCS=F DFT=T ScalE2(SS,OS)=  1.000000  1.000000
 ExpMin= 1.61D-01 ExpMax= 4.17D+03 ExpMxC= 6.27D+02 IAcc=3 IRadAn=         5 AccDes= 0.00D+00
 HarFok:  IExCor=  205 AccDes= 0.00D+00 IRadAn=         5 IDoV=-2 UseB2=F ITyADJ=14
 ICtDFT= 12500011 ScaDFX=  1.000000  1.000000  1.000000  1.000000
 GSVD:  LWork=       -1008 too small for GESVD, short by        4340 words or        4340 for optimal perf.
 Range of M.O.s used for correlation:    29   456
 NBasis=   456 NAE=    95 NBE=    95 NFC=    28 NFV=     0
 NROrb=    428 NOA=    67 NOB=    67 NVA=   361 NVB=   361

 **** Warning!!: The largest alpha MO coefficient is  0.11400892D+02


 **** Warning!!: The smallest alpha delta epsilon is  0.89750362D-01

 Orbital symmetries:
       Occupied  (A) (A) (A) (A) (A) (A) (A) (A) (A) (A) (A) (A)
                 (A) (A) (A) (A) (A) (A) (A) (A) (A) (A) (A) (A)
                 (A) (A) (A) (A) (A) (A) (A) (A) (A) (A) (A) (A)
                 (A) (A) (A) (A) (A) (A) (A) (A) (A) (A) (A) (A)
                 (A) (A) (A) (A) (A) (A) (A) (A) (A) (A) (A) (A)
                 (A) (A) (A) (A) (A) (A) (A) (A) (A) (A) (A) (A)
                 (A) (A) (A) (A) (A) (A) (A) (A) (A) (A) (A) (A)
                 (A) (A) (A) (A) (A) (A) (A) (A) (A) (A) (A)
       Virtual   (A) (A) (A) (A) (A) (A) (A) (A) (A) (A) (A) (A)
                 (A) (A) (A) (A) (A) (A) (A) (A) (A) (A) (A) (A)
                 (A) (A) (A) (A) (A) (A) (A) (A) (A) (A) (A) (A)
                 (A) (A) (A) (A) (A) (A) (A) (A) (A) (A) (A) (A)
                 (A) (A) (A) (A) (A) (A) (A) (A) (A) (A) (A) (A)
                 (A) (A) (A) (A) (A) (A) (A) (A) (A) (A) (A) (A)
                 (A) (A) (A) (A) (A) (A) (A) (A) (A) (A) (A) (A)
                 (A) (A) (A) (A) (A) (A) (A) (A) (A) (A) (A) (A)
                 (A) (A) (A) (A) (A) (A) (A) (A) (A) (A) (A) (A)
                 (A) (A) (A) (A) (A) (A) (A) (A) (A) (A) (A) (A)
                 (A) (A) (A) (A) (A) (A) (A) (A) (A) (A) (A) (A)
                 (A) (A) (A) (A) (A) (A) (A) (A) (A) (A) (A) (A)
                 (A) (A) (A) (A) (A) (A) (A) (A) (A) (A) (A) (A)
                 (A) (A) (A) (A) (A) (A) (A) (A) (A) (A) (A) (A)
                 (A) (A) (A) (A) (A) (A) (A) (A) (A) (A) (A) (A)
                 (A) (A) (A) (A) (A) (A) (A) (A) (A) (A) (A) (A)
                 (A) (A) (A) (A) (A) (A) (A) (A) (A) (A) (A) (A)
                 (A) (A) (A) (A) (A) (A) (A) (A) (A) (A) (A) (A)
                 (A) (A) (A) (A) (A) (A) (A) (A) (A) (A) (A) (A)
                 (A) (A) (A) (A) (A) (A) (A) (A) (A) (A) (A) (A)
                 (A) (A) (A) (A) (A) (A) (A) (A) (A) (A) (A) (A)
                 (A) (A) (A) (A) (A) (A) (A) (A) (A) (A) (A) (A)
                 (A) (A) (A) (A) (A) (A) (A) (A) (A) (A) (A) (A)
                 (A) (A) (A) (A) (A) (A) (A) (A) (A) (A) (A) (A)
                 (A) (A) (A) (A) (A) (A) (A) (A) (A) (A) (A) (A)
                 (A) (A) (A) (A) (A) (A) (A) (A) (A) (A) (A) (A)
                 (A) (A) (A) (A) (A) (A) (A) (A) (A) (A) (A) (A)
                 (A) (A) (A) (A) (A) (A) (A) (A) (A) (A) (A) (A)
                 (A) (A) (A) (A) (A) (A) (A) (A) (A) (A) (A) (A)
                 (A) (A) (A) (A) (A) (A) (A) (A) (A) (A) (A) (A)
                 (A)
     8 initial guesses have been made.
 Convergence on wavefunction:    0.001000000000000
 Iteration     1 Dimension     8 NMult     0 NNew      8
 CISAX will form     8 AO SS matrices at one time.
 New state      1 was old state      2
 New state      2 was old state      1
 New state      3 was old state      4
 New state      4 was old state      3
 Iteration     2 Dimension    12 NMult     8 NNew      4
 Iteration     3 Dimension    16 NMult    12 NNew      4
 Iteration     4 Dimension    20 NMult    16 NNew      4
 ***********************************************************************
 Excited states from <AA,BB:AA,BB> singles matrix:
 ***********************************************************************
 
 Ground to excited state transition densities written to RWF  633
 Ground to excited state transition electric dipole moments (Au):
       state          X           Y           Z        Dip. S.      Osc.
         1         0.0000     -0.0000     -0.0000      0.0000      0.0000
         2        -0.0000      0.0251      0.0000      0.0006      0.0000
 Ground to excited state transition velocity dipole moments (Au):
       state          X           Y           Z        Dip. S.      Osc.
         1        -0.0000      0.0000      0.0000      0.0000      0.0000
         2         0.0000      0.0011     -0.0000      0.0000      0.0000
 Ground to excited state transition magnetic dipole moments (Au):
       state          X           Y           Z
         1        -0.0000      0.0000     -0.0000
         2         0.1979     -0.0000      0.0405
 Ground to excited state transition velocity quadrupole moments (Au):
       state          XX          YY          ZZ          XY          XZ          YZ
         1        -0.0000     -0.0000      0.0000     -0.0000      0.0000      0.0000
         2         0.0000     -0.0000      0.0000     -0.0121      0.0000      0.0057
 <0|del|b> * <b|rxdel|0> + <0|del|b> * <b|delr+rdel|0>
 Rotatory Strengths (R) in cgs (10**-40 erg-esu-cm/Gauss)
       state          XX          YY          ZZ    R(velocity)    E-M Angle
         1        -0.0000     -0.0000      0.0000     -0.0000       90.00
         2        -0.0001     -0.0001      0.0000     -0.0000       90.00
 1/2[<0|r|b>*<b|rxdel|0> + (<0|rxdel|b>*<b|r|0>)*]
 Rotatory Strengths (R) in cgs (10**-40 erg-esu-cm/Gauss)
       state          XX          YY          ZZ     R(length)
         1         0.0000      0.0000     -0.0000     -0.0000
         2         0.0001      0.0000     -0.0000      0.0000
  1/2[<0|del|b>*<b|r|0> + (<0|r|b>*<b|del|0>)*] (Au)
       state          X           Y           Z        Dip. S.   Osc.(frdel)
         1        -0.0000     -0.0000     -0.0000      0.0000      0.0000
         2        -0.0000      0.0000     -0.0000     -0.0000     -0.0000

 Excitation energies and oscillator strengths:
 
 Excited State   1:      Triplet-A      1.6750 eV  740.21 nm  f=0.0000  <S**2>=2.000
      95 -> 96         0.70410
 This state for optimization and/or second-order correction.
 Total Energy, E(TD-HF/TD-DFT) =  -1144.33050166    
 Copying the excited state density for this state as the 1-particle RhoCI density.
 
 Excited State   2:      Singlet-A      1.6880 eV  734.49 nm  f=0.0000  <S**2>=0.000
      95 -> 96         0.70442
 SavETr:  write IOETrn=   770 NScale= 10 NData=  16 NLR=1 NState=    2 LETran=      46.

 **********************************************************************

            Population analysis using the SCF Density.

 **********************************************************************

 Orbital symmetries:
       Occupied  (A) (A) (A) (A) (A) (A) (A) (A) (A) (A) (A) (A)
                 (A) (A) (A) (A) (A) (A) (A) (A) (A) (A) (A) (A)
                 (A) (A) (A) (A) (A) (A) (A) (A) (A) (A) (A) (A)
                 (A) (A) (A) (A) (A) (A) (A) (A) (A) (A) (A) (A)
                 (A) (A) (A) (A) (A) (A) (A) (A) (A) (A) (A) (A)
                 (A) (A) (A) (A) (A) (A) (A) (A) (A) (A) (A) (A)
                 (A) (A) (A) (A) (A) (A) (A) (A) (A) (A) (A) (A)
                 (A) (A) (A) (A) (A) (A) (A) (A) (A) (A) (A)
       Virtual   (A) (A) (A) (A) (A) (A) (A) (A) (A) (A) (A) (A)
                 (A) (A) (A) (A) (A) (A) (A) (A) (A) (A) (A) (A)
                 (A) (A) (A) (A) (A) (A) (A) (A) (A) (A) (A) (A)
                 (A) (A) (A) (A) (A) (A) (A) (A) (A) (A) (A) (A)
                 (A) (A) (A) (A) (A) (A) (A) (A) (A) (A) (A) (A)
                 (A) (A) (A) (A) (A) (A) (A) (A) (A) (A) (A) (A)
                 (A) (A) (A) (A) (A) (A) (A) (A) (A) (A) (A) (A)
                 (A) (A) (A) (A) (A) (A) (A) (A) (A) (A) (A) (A)
                 (A) (A) (A) (A) (A) (A) (A) (A) (A) (A) (A) (A)
                 (A) (A) (A) (A) (A) (A) (A) (A) (A) (A) (A) (A)
                 (A) (A) (A) (A) (A) (A) (A) (A) (A) (A) (A) (A)
                 (A) (A) (A) (A) (A) (A) (A) (A) (A) (A) (A) (A)
                 (A) (A) (A) (A) (A) (A) (A) (A) (A) (A) (A) (A)
                 (A) (A) (A) (A) (A) (A) (A) (A) (A) (A) (A) (A)
                 (A) (A) (A) (A) (A) (A) (A) (A) (A) (A) (A) (A)
                 (A) (A) (A) (A) (A) (A) (A) (A) (A) (A) (A) (A)
                 (A) (A) (A) (A) (A) (A) (A) (A) (A) (A) (A) (A)
                 (A) (A) (A) (A) (A) (A) (A) (A) (A) (A) (A) (A)
                 (A) (A) (A) (A) (A) (A) (A) (A) (A) (A) (A) (A)
                 (A) (A) (A) (A) (A) (A) (A) (A) (A) (A) (A) (A)
                 (A) (A) (A) (A) (A) (A) (A) (A) (A) (A) (A) (A)
                 (A) (A) (A) (A) (A) (A) (A) (A) (A) (A) (A) (A)
                 (A) (A) (A) (A) (A) (A) (A) (A) (A) (A) (A) (A)
                 (A) (A) (A) (A) (A) (A) (A) (A) (A) (A) (A) (A)
                 (A) (A) (A) (A) (A) (A) (A) (A) (A) (A) (A) (A)
                 (A) (A) (A) (A) (A) (A) (A) (A) (A) (A) (A) (A)
                 (A) (A) (A) (A) (A) (A) (A) (A) (A) (A) (A) (A)
                 (A) (A) (A) (A) (A) (A) (A) (A) (A) (A) (A) (A)
                 (A) (A) (A) (A) (A) (A) (A) (A) (A) (A) (A) (A)
                 (A) (A) (A) (A) (A) (A) (A) (A) (A) (A) (A) (A)
                 (A)
 The electronic state is 1-A.
 Alpha  occ. eigenvalues --  -14.37890 -14.36359 -14.35636 -14.34661 -10.27696
 Alpha  occ. eigenvalues --  -10.26286 -10.25914 -10.25850 -10.25783 -10.25242
 Alpha  occ. eigenvalues --  -10.23902 -10.23425 -10.23424 -10.23120 -10.22765
 Alpha  occ. eigenvalues --  -10.20919 -10.19101 -10.19101 -10.18622 -10.18622
 Alpha  occ. eigenvalues --  -10.18534 -10.18534 -10.18426 -10.18426 -10.17925
 Alpha  occ. eigenvalues --  -10.17925 -10.17272 -10.17141  -0.99914  -0.97397
 Alpha  occ. eigenvalues --   -0.95554  -0.91276  -0.86319  -0.85206  -0.83599
 Alpha  occ. eigenvalues --   -0.81477  -0.80589  -0.79552  -0.75544  -0.74021
 Alpha  occ. eigenvalues --   -0.72439  -0.72281  -0.69297  -0.68156  -0.68081
 Alpha  occ. eigenvalues --   -0.64703  -0.62643  -0.62517  -0.59804  -0.59259
 Alpha  occ. eigenvalues --   -0.58835  -0.55978  -0.54911  -0.54235  -0.54074
 Alpha  occ. eigenvalues --   -0.51608  -0.50168  -0.48063  -0.47143  -0.47079
 Alpha  occ. eigenvalues --   -0.46010  -0.45998  -0.45494  -0.44989  -0.43174
 Alpha  occ. eigenvalues --   -0.42944  -0.42549  -0.42349  -0.41633  -0.41559
 Alpha  occ. eigenvalues --   -0.40439  -0.40069  -0.39139  -0.38147  -0.37939
 Alpha  occ. eigenvalues --   -0.37069  -0.36831  -0.36825  -0.36624  -0.35528
 Alpha  occ. eigenvalues --   -0.34952  -0.34534  -0.34034  -0.32876  -0.31853
 Alpha  occ. eigenvalues --   -0.31655  -0.31463  -0.30923  -0.28253  -0.27626
 Alpha  occ. eigenvalues --   -0.26736  -0.24918  -0.24245  -0.23802  -0.18765
 Alpha virt. eigenvalues --   -0.09790  -0.05997  -0.02086  -0.00482  -0.00227
 Alpha virt. eigenvalues --    0.00812   0.02481   0.02550   0.03466   0.08520
 Alpha virt. eigenvalues --    0.08760   0.10473   0.10547   0.11043   0.11074
 Alpha virt. eigenvalues --    0.12750   0.13374   0.14131   0.15191   0.15340
 Alpha virt. eigenvalues --    0.15744   0.15882   0.16485   0.16891   0.16988
 Alpha virt. eigenvalues --    0.17213   0.17481   0.18481   0.19030   0.19950
 Alpha virt. eigenvalues --    0.20351   0.21066   0.21517   0.21745   0.23359
 Alpha virt. eigenvalues --    0.23521   0.23939   0.25909   0.25981   0.26617
 Alpha virt. eigenvalues --    0.28175   0.29056   0.29118   0.30311   0.30756
 Alpha virt. eigenvalues --    0.31923   0.32334   0.33570   0.34386   0.34961
 Alpha virt. eigenvalues --    0.35918   0.37027   0.38608   0.39109   0.41227
 Alpha virt. eigenvalues --    0.41259   0.43249   0.44362   0.46591   0.47704
 Alpha virt. eigenvalues --    0.48189   0.48713   0.49689   0.49892   0.50440
 Alpha virt. eigenvalues --    0.51065   0.51728   0.52129   0.52715   0.53747
 Alpha virt. eigenvalues --    0.54736   0.54846   0.55403   0.56080   0.56568
 Alpha virt. eigenvalues --    0.56844   0.57390   0.57423   0.57678   0.58101
 Alpha virt. eigenvalues --    0.58310   0.58410   0.59065   0.59751   0.60374
 Alpha virt. eigenvalues --    0.60398   0.61069   0.61498   0.61767   0.61815
 Alpha virt. eigenvalues --    0.61824   0.62124   0.62451   0.63089   0.64101
 Alpha virt. eigenvalues --    0.64942   0.65161   0.66212   0.66264   0.66654
 Alpha virt. eigenvalues --    0.67246   0.67938   0.70639   0.71075   0.72557
 Alpha virt. eigenvalues --    0.74100   0.74818   0.76620   0.77072   0.77792
 Alpha virt. eigenvalues --    0.79731   0.80029   0.80286   0.80880   0.81006
 Alpha virt. eigenvalues --    0.81153   0.81352   0.82251   0.83218   0.83419
 Alpha virt. eigenvalues --    0.83587   0.84602   0.84725   0.85403   0.85603
 Alpha virt. eigenvalues --    0.85715   0.86061   0.86781   0.87932   0.89039
 Alpha virt. eigenvalues --    0.89421   0.90018   0.90388   0.90857   0.90980
 Alpha virt. eigenvalues --    0.92020   0.92682   0.93372   0.93988   0.94568
 Alpha virt. eigenvalues --    0.95903   0.96334   0.96765   0.97006   0.97790
 Alpha virt. eigenvalues --    0.99232   0.99314   1.00113   1.00548   1.01877
 Alpha virt. eigenvalues --    1.03044   1.04120   1.05530   1.06531   1.08088
 Alpha virt. eigenvalues --    1.08650   1.09226   1.11603   1.11895   1.12026
 Alpha virt. eigenvalues --    1.12878   1.12998   1.14711   1.17350   1.17408
 Alpha virt. eigenvalues --    1.18802   1.19423   1.21344   1.21540   1.22435
 Alpha virt. eigenvalues --    1.23264   1.25920   1.26717   1.27188   1.28706
 Alpha virt. eigenvalues --    1.29698   1.31010   1.32304   1.33228   1.33827
 Alpha virt. eigenvalues --    1.36427   1.38459   1.38568   1.41395   1.41800
 Alpha virt. eigenvalues --    1.42699   1.44367   1.45198   1.45206   1.45588
 Alpha virt. eigenvalues --    1.46148   1.46643   1.47839   1.48940   1.49093
 Alpha virt. eigenvalues --    1.49241   1.50988   1.51737   1.51875   1.53342
 Alpha virt. eigenvalues --    1.53425   1.54059   1.54552   1.56713   1.60465
 Alpha virt. eigenvalues --    1.61064   1.63483   1.64569   1.67209   1.68570
 Alpha virt. eigenvalues --    1.69311   1.71094   1.72145   1.72551   1.75468
 Alpha virt. eigenvalues --    1.75672   1.76885   1.78228   1.79098   1.81324
 Alpha virt. eigenvalues --    1.82734   1.83231   1.83374   1.83849   1.84016
 Alpha virt. eigenvalues --    1.86019   1.86650   1.87732   1.88652   1.89188
 Alpha virt. eigenvalues --    1.89205   1.89528   1.89694   1.92094   1.92349
 Alpha virt. eigenvalues --    1.93241   1.94887   1.95491   1.96211   1.96797
 Alpha virt. eigenvalues --    1.96935   1.98942   1.99956   2.00747   2.03556
 Alpha virt. eigenvalues --    2.04358   2.05277   2.06569   2.07085   2.09038
 Alpha virt. eigenvalues --    2.09534   2.09953   2.12057   2.12998   2.13187
 Alpha virt. eigenvalues --    2.13592   2.15264   2.18190   2.19145   2.19589
 Alpha virt. eigenvalues --    2.19876   2.21604   2.22120   2.22739   2.22803
 Alpha virt. eigenvalues --    2.24634   2.25177   2.26075   2.26250   2.26594
 Alpha virt. eigenvalues --    2.28391   2.28518   2.29025   2.30202   2.30724
 Alpha virt. eigenvalues --    2.31376   2.31947   2.33636   2.34824   2.35850
 Alpha virt. eigenvalues --    2.37172   2.38752   2.39424   2.42446   2.43415
 Alpha virt. eigenvalues --    2.45962   2.46199   2.48423   2.51054   2.53316
 Alpha virt. eigenvalues --    2.55728   2.58295   2.59339   2.60869   2.61592
 Alpha virt. eigenvalues --    2.61689   2.63949   2.65632   2.65931   2.66756
 Alpha virt. eigenvalues --    2.67810   2.68263   2.69701   2.69978   2.71399
 Alpha virt. eigenvalues --    2.72196   2.73603   2.73916   2.74679   2.76457
 Alpha virt. eigenvalues --    2.77048   2.79559   2.79891   2.82833   2.83538
 Alpha virt. eigenvalues --    2.85127   2.86883   2.89781   2.92762   2.93157
 Alpha virt. eigenvalues --    2.96316   2.96661   3.00028   3.02862   3.07178
 Alpha virt. eigenvalues --    3.14425   3.14760   3.25103   3.31407   3.40957
 Alpha virt. eigenvalues --    3.42165   3.46942   3.49089   4.03485   4.05042
 Alpha virt. eigenvalues --    4.09641   4.10279   4.10370   4.13246   4.14737
 Alpha virt. eigenvalues --    4.15349   4.16598   4.18819   4.21566   4.21644
 Alpha virt. eigenvalues --    4.24164   4.27637   4.31057   4.35066   4.36227
 Alpha virt. eigenvalues --    4.38291   4.39155   4.41546   4.43513   4.49681
 Alpha virt. eigenvalues --    4.61433   4.65620   4.69758   4.75447   4.83152
 Alpha virt. eigenvalues --    4.90460
          Condensed to atoms (all electrons):
               1          2          3          4          5          6
     1  C    5.175329   0.366188  -0.064843  -0.054620  -0.007050   0.000336
     2  C    0.366188   5.126759   0.369150   0.289980  -0.061518   0.005946
     3  C   -0.064843   0.369150   5.171854  -0.056345  -0.006941   0.000276
     4  C   -0.054620   0.289980  -0.056345   4.877097   0.495492  -0.018033
     5  C   -0.007050  -0.061518  -0.006941   0.495492   5.023562   0.515740
     6  C    0.000336   0.005946   0.000276  -0.018033   0.515740   4.882334
     7  C    0.000009  -0.000219   0.000008  -0.039604  -0.021494   0.540740
     8  C   -0.000207   0.009189  -0.000189  -0.049050  -0.060463  -0.030263
     9  C    0.000368  -0.039875  -0.000307   0.522249  -0.011392  -0.044572
    10  N    0.000593  -0.044423   0.000651  -0.032064   0.008122  -0.000125
    11  C   -0.000004  -0.000217  -0.000016   0.004974  -0.000043  -0.000001
    12  C    0.000000  -0.000019   0.000000  -0.000113  -0.000001  -0.000006
    13  C   -0.000000   0.000065  -0.000002  -0.000332  -0.000009   0.000004
    14  N   -0.000000   0.000011  -0.000003  -0.000025  -0.000000   0.000000
    15  C    0.000000  -0.000000   0.000000   0.000005  -0.000000   0.000000
    16  N   -0.000000  -0.000000  -0.000000  -0.000000   0.000000  -0.000000
    17  C    0.000000   0.000001   0.000000  -0.000002  -0.000000   0.000000
    18  C   -0.000000   0.000000   0.000000  -0.000000  -0.000000  -0.000000
    19  C   -0.000000   0.000000  -0.000000  -0.000000  -0.000000   0.000000
    20  C   -0.000000   0.000000   0.000000  -0.000002   0.000000   0.000000
    21  N   -0.000007   0.000166   0.000000  -0.000659  -0.000019   0.000007
    22  C   -0.000000   0.000053   0.000000  -0.000117  -0.000018  -0.000003
    23  C    0.000368  -0.039875  -0.000307  -0.020629   0.000652   0.000036
    24  C   -0.000207   0.009189  -0.000189  -0.000335   0.000001   0.000000
    25  C    0.000009  -0.000219   0.000008   0.000014   0.000000  -0.000000
    26  C    0.000336   0.005946   0.000276  -0.000240   0.000001   0.000000
    27  C   -0.007049  -0.061518  -0.006940   0.005940  -0.000268   0.000001
    28  C   -0.054619   0.289980  -0.056345   0.002110   0.005940  -0.000240
    29  H    0.367179  -0.028200   0.005526  -0.001685   0.000156  -0.000050
    30  H    0.358730  -0.027780  -0.002994  -0.008951   0.004197   0.000028
    31  H    0.358730  -0.027780  -0.002995   0.005357   0.000127  -0.000000
    32  H    0.005494  -0.027655   0.368722  -0.002094   0.000039  -0.000031
    33  H   -0.003224  -0.028179   0.358762  -0.008375   0.004575  -0.000019
    34  H   -0.003224  -0.028179   0.358762   0.005521   0.000100   0.000001
    35  H   -0.000254  -0.007922  -0.000172  -0.048013   0.354946  -0.042960
    36  H    0.000000  -0.000143  -0.000000   0.003411  -0.039026   0.357881
    37  H    0.000000   0.000008   0.000000   0.001069   0.004512  -0.040988
    38  H    0.000002  -0.000162   0.000002   0.004937   0.000606   0.004688
    39  H    0.000000  -0.000000   0.000000  -0.000000   0.000000  -0.000000
    40  H   -0.000000   0.000000  -0.000000   0.000000  -0.000000   0.000000
    41  H    0.000000  -0.000000  -0.000000   0.000000   0.000000  -0.000000
    42  H    0.000000  -0.000000   0.000000   0.000001   0.000000  -0.000000
    43  H    0.000002  -0.000162   0.000002   0.000026   0.000000   0.000000
    44  H    0.000000   0.000008   0.000000  -0.000000   0.000000   0.000000
    45  H    0.000000  -0.000143  -0.000000   0.000002  -0.000000   0.000000
    46  H   -0.000254  -0.007922  -0.000172   0.000443   0.000006  -0.000000
               7          8          9         10         11         12
     1  C    0.000009  -0.000207   0.000368   0.000593  -0.000004   0.000000
     2  C   -0.000219   0.009189  -0.039875  -0.044423  -0.000217  -0.000019
     3  C    0.000008  -0.000189  -0.000307   0.000651  -0.000016   0.000000
     4  C   -0.039604  -0.049050   0.522249  -0.032064   0.004974  -0.000113
     5  C   -0.021494  -0.060463  -0.011392   0.008122  -0.000043  -0.000001
     6  C    0.540740  -0.030263  -0.044572  -0.000125  -0.000001  -0.000006
     7  C    4.846267   0.532295  -0.003862   0.005802  -0.000005   0.000138
     8  C    0.532295   5.069563   0.480956  -0.084058  -0.002595  -0.000324
     9  C   -0.003862   0.480956   4.641387   0.229138  -0.040819  -0.002887
    10  N    0.005802  -0.084058   0.229138   7.492259   0.268315  -0.092211
    11  C   -0.000005  -0.002595  -0.040819   0.268315   4.973982   0.502151
    12  C    0.000138  -0.000324  -0.002887  -0.092211   0.502151   5.152136
    13  C   -0.000022   0.000223   0.001601  -0.018357  -0.045204   0.180695
    14  N   -0.000006  -0.000087   0.000095  -0.001708  -0.001774  -0.091488
    15  C   -0.000002  -0.000203  -0.000033   0.006948  -0.006935   0.385837
    16  N   -0.000000  -0.000014  -0.000010  -0.000373  -0.058143  -0.004173
    17  C   -0.000004  -0.000339   0.000094   0.007983  -0.069042  -0.038745
    18  C    0.000000   0.000015   0.000004  -0.000117   0.005658   0.000877
    19  C    0.000000  -0.000005   0.000000   0.000020   0.000287  -0.000035
    20  C    0.000002   0.000086  -0.000018  -0.000115   0.004614  -0.000277
    21  N   -0.000046   0.001072   0.004250  -0.006876  -0.091076   0.007055
    22  C    0.000024   0.000011  -0.000137  -0.081490   0.358985  -0.047742
    23  C   -0.000073   0.005078  -0.023888   0.229138  -0.040820  -0.002887
    24  C    0.000002  -0.000252   0.005078  -0.084058  -0.002595  -0.000324
    25  C   -0.000000   0.000002  -0.000073   0.005802  -0.000005   0.000138
    26  C   -0.000000   0.000000   0.000036  -0.000125  -0.000001  -0.000006
    27  C    0.000000   0.000001   0.000652   0.008122  -0.000043  -0.000001
    28  C    0.000014  -0.000335  -0.020629  -0.032064   0.004974  -0.000113
    29  H   -0.000012   0.000007   0.000683  -0.000189  -0.000014  -0.000000
    30  H   -0.000004   0.000006  -0.000179  -0.000019   0.000000  -0.000000
    31  H   -0.000000   0.000003   0.000006  -0.000019   0.000000  -0.000000
    32  H   -0.000012   0.000002   0.000864  -0.000190  -0.000011   0.000004
    33  H   -0.000002   0.000003  -0.000154  -0.000020   0.000000  -0.000000
    34  H   -0.000000   0.000003   0.000016  -0.000020   0.000000  -0.000000
    35  H    0.005032   0.000715   0.004644  -0.000085   0.000002   0.000000
    36  H   -0.042215   0.004712   0.000909   0.000004  -0.000000   0.000000
    37  H    0.356279  -0.039242   0.003391  -0.000104   0.000004  -0.000000
    38  H   -0.040830   0.341225  -0.036597  -0.014538   0.017245  -0.001555
    39  H    0.000000   0.000003  -0.000002  -0.000088   0.001620  -0.063224
    40  H   -0.000000  -0.000000   0.000000   0.000001  -0.000049  -0.000004
    41  H    0.000000  -0.000000  -0.000000  -0.000000   0.000015   0.000001
    42  H    0.000000  -0.000003  -0.000006  -0.000001  -0.000170   0.000006
    43  H    0.000000  -0.000001  -0.000120  -0.014538   0.017245  -0.001556
    44  H    0.000000  -0.000000   0.000001  -0.000104   0.000004  -0.000000
    45  H    0.000000   0.000000   0.000000   0.000004  -0.000000   0.000000
    46  H    0.000000  -0.000000  -0.000036  -0.000085   0.000002   0.000000
              13         14         15         16         17         18
     1  C   -0.000000  -0.000000   0.000000  -0.000000   0.000000  -0.000000
     2  C    0.000065   0.000011  -0.000000  -0.000000   0.000001   0.000000
     3  C   -0.000002  -0.000003   0.000000  -0.000000   0.000000   0.000000
     4  C   -0.000332  -0.000025   0.000005  -0.000000  -0.000002  -0.000000
     5  C   -0.000009  -0.000000  -0.000000   0.000000  -0.000000  -0.000000
     6  C    0.000004   0.000000   0.000000  -0.000000   0.000000  -0.000000
     7  C   -0.000022  -0.000006  -0.000002  -0.000000  -0.000004   0.000000
     8  C    0.000223  -0.000087  -0.000203  -0.000014  -0.000339   0.000015
     9  C    0.001601   0.000095  -0.000033  -0.000010   0.000094   0.000004
    10  N   -0.018357  -0.001708   0.006948  -0.000373   0.007983  -0.000117
    11  C   -0.045204  -0.001774  -0.006935  -0.058143  -0.069042   0.005658
    12  C    0.180695  -0.091488   0.385837  -0.004173  -0.038745   0.000877
    13  C    4.806911   0.861895  -0.052568   0.006320   0.000428  -0.000004
    14  N    0.861895   6.696265  -0.000902  -0.000012   0.000011  -0.000000
    15  C   -0.052568  -0.000902   4.890114   0.465119  -0.049582   0.004526
    16  N    0.006320  -0.000012   0.465119   6.866805   0.341020  -0.073538
    17  C    0.000428   0.000011  -0.049582   0.341020   4.857512   0.479637
    18  C   -0.000004  -0.000000   0.004526  -0.073538   0.479637   4.962344
    19  C   -0.000000  -0.000000  -0.000226   0.005328  -0.006727   0.531505
    20  C    0.000003  -0.000000   0.000054  -0.000060  -0.039759  -0.025381
    21  N   -0.000087  -0.000000  -0.000333   0.006164  -0.058469  -0.040485
    22  C    0.007532  -0.000170  -0.049320  -0.022890   0.333277  -0.062423
    23  C    0.001601   0.000095  -0.000033  -0.000010   0.000094   0.000004
    24  C    0.000223  -0.000087  -0.000203  -0.000014  -0.000339   0.000015
    25  C   -0.000022  -0.000006  -0.000002  -0.000000  -0.000004   0.000000
    26  C    0.000004   0.000000   0.000000  -0.000000   0.000000  -0.000000
    27  C   -0.000009  -0.000000  -0.000000   0.000000  -0.000000  -0.000000
    28  C   -0.000332  -0.000025   0.000005  -0.000000  -0.000002  -0.000000
    29  H    0.000000   0.000000   0.000000  -0.000000   0.000000   0.000000
    30  H    0.000000  -0.000000   0.000000   0.000000  -0.000000  -0.000000
    31  H    0.000000  -0.000000   0.000000   0.000000  -0.000000  -0.000000
    32  H    0.000025   0.000015   0.000000  -0.000000   0.000000  -0.000000
    33  H   -0.000000   0.000000  -0.000000   0.000000   0.000000  -0.000000
    34  H   -0.000000   0.000000  -0.000000   0.000000   0.000000  -0.000000
    35  H   -0.000000  -0.000000   0.000000  -0.000000   0.000000  -0.000000
    36  H    0.000000   0.000000  -0.000000   0.000000   0.000000  -0.000000
    37  H    0.000000  -0.000000  -0.000000  -0.000000  -0.000000   0.000000
[...]
    41  H    0.352231  -0.035097   0.004506   0.000520  -0.000000  -0.000000
    42  H   -0.064269   0.377773  -0.051401   0.004177  -0.000006  -0.000003
    43  H   -0.000007  -0.000002  -0.000260  -0.001480  -0.036597   0.341225
    44  H    0.000000  -0.000000  -0.000000  -0.000002   0.003391  -0.039242
    45  H    0.000000  -0.000000   0.000000   0.000000   0.000909   0.004712
    46  H   -0.000000  -0.000000  -0.000000   0.000000   0.004644   0.000715
              25         26         27         28         29         30
     1  C    0.000009   0.000336  -0.007049  -0.054619   0.367179   0.358730
     2  C   -0.000219   0.005946  -0.061518   0.289980  -0.028200  -0.027780
     3  C    0.000008   0.000276  -0.006940  -0.056345   0.005526  -0.002994
     4  C    0.000014  -0.000240   0.005940   0.002110  -0.001685  -0.008951
     5  C    0.000000   0.000001  -0.000268   0.005940   0.000156   0.004197
     6  C   -0.000000   0.000000   0.000001  -0.000240  -0.000050   0.000028
     7  C   -0.000000  -0.000000   0.000000   0.000014  -0.000012  -0.000004
     8  C    0.000002   0.000000   0.000001  -0.000335   0.000007   0.000006
     9  C   -0.000073   0.000036   0.000652  -0.020629   0.000683  -0.000179
    10  N    0.005802  -0.000125   0.008122  -0.032064  -0.000189  -0.000019
    11  C   -0.000005  -0.000001  -0.000043   0.004974  -0.000014   0.000000
    12  C    0.000138  -0.000006  -0.000001  -0.000113  -0.000000  -0.000000
    13  C   -0.000022   0.000004  -0.000009  -0.000332   0.000000   0.000000
    14  N   -0.000006   0.000000  -0.000000  -0.000025   0.000000  -0.000000
    15  C   -0.000002   0.000000  -0.000000   0.000005   0.000000   0.000000
    16  N   -0.000000  -0.000000   0.000000  -0.000000  -0.000000   0.000000
    17  C   -0.000004   0.000000  -0.000000  -0.000002   0.000000  -0.000000
    18  C    0.000000  -0.000000  -0.000000  -0.000000   0.000000  -0.000000
    19  C    0.000000   0.000000  -0.000000  -0.000000   0.000000   0.000000
    20  C    0.000002   0.000000   0.000000  -0.000002   0.000000   0.000000
    21  N   -0.000046   0.000007  -0.000019  -0.000659   0.000040   0.000000
    22  C    0.000024  -0.000003  -0.000018  -0.000117   0.000005   0.000000
    23  C   -0.003862  -0.044572  -0.011392   0.522249   0.000683   0.000006
    24  C    0.532295  -0.030263  -0.060463  -0.049050   0.000007   0.000003
    25  C    4.846267   0.540740  -0.021493  -0.039604  -0.000012  -0.000000
    26  C    0.540740   4.882334   0.515740  -0.018033  -0.000050  -0.000000
    27  C   -0.021493   0.515740   5.023561   0.495492   0.000156   0.000127
    28  C   -0.039604  -0.018033   0.495492   4.877096  -0.001685   0.005357
    29  H   -0.000012  -0.000050   0.000156  -0.001685   0.556050  -0.027960
    30  H   -0.000000  -0.000000   0.000127   0.005357  -0.027960   0.581300
    31  H   -0.000004   0.000028   0.004196  -0.008950  -0.027960  -0.029245
    32  H   -0.000012  -0.000031   0.000039  -0.002094  -0.000179  -0.000045
    33  H   -0.000000   0.000001   0.000100   0.005521  -0.000048   0.001847
    34  H   -0.000002  -0.000019   0.004575  -0.008375  -0.000048  -0.000195
    35  H    0.000000  -0.000000   0.000006   0.000443   0.000050   0.003855
    36  H    0.000000   0.000000  -0.000000   0.000002   0.000000   0.000005
    37  H    0.000000   0.000000   0.000000  -0.000000  -0.000000  -0.000000
    38  H    0.000000   0.000000   0.000000   0.000026   0.000001   0.000000
    39  H    0.000000  -0.000000   0.000000  -0.000000  -0.000000  -0.000000
    40  H   -0.000000   0.000000  -0.000000   0.000000   0.000000  -0.000000
    41  H    0.000000  -0.000000   0.000000   0.000000  -0.000000  -0.000000
    42  H    0.000000  -0.000000   0.000000   0.000001  -0.000000  -0.000000
    43  H   -0.040830   0.004688   0.000606   0.004937   0.000001  -0.000000
    44  H    0.356279  -0.040988   0.004512   0.001069  -0.000000  -0.000000
    45  H   -0.042215   0.357881  -0.039026   0.003411   0.000000  -0.000000
    46  H    0.005032  -0.042960   0.354946  -0.048013   0.000050  -0.000160
              31         32         33         34         35         36
     1  C    0.358730   0.005494  -0.003224  -0.003224  -0.000254   0.000000
     2  C   -0.027780  -0.027655  -0.028179  -0.028179  -0.007922  -0.000143
     3  C   -0.002995   0.368722   0.358762   0.358762  -0.000172  -0.000000
     4  C    0.005357  -0.002094  -0.008375   0.005521  -0.048013   0.003411
     5  C    0.000127   0.000039   0.004575   0.000100   0.354946  -0.039026
     6  C   -0.000000  -0.000031  -0.000019   0.000001  -0.042960   0.357881
     7  C   -0.000000  -0.000012  -0.000002  -0.000000   0.005032  -0.042215
     8  C    0.000003   0.000002   0.000003   0.000003   0.000715   0.004712
     9  C    0.000006   0.000864  -0.000154   0.000016   0.004644   0.000909
    10  N   -0.000019  -0.000190  -0.000020  -0.000020  -0.000085   0.000004
    11  C    0.000000  -0.000011   0.000000   0.000000   0.000002  -0.000000
    12  C   -0.000000   0.000004  -0.000000  -0.000000   0.000000   0.000000
    13  C    0.000000   0.000025  -0.000000  -0.000000  -0.000000   0.000000
    14  N   -0.000000   0.000015   0.000000   0.000000  -0.000000   0.000000
    15  C    0.000000   0.000000  -0.000000  -0.000000   0.000000  -0.000000
    16  N    0.000000  -0.000000   0.000000   0.000000  -0.000000   0.000000
    17  C   -0.000000   0.000000   0.000000   0.000000   0.000000   0.000000
    18  C   -0.000000  -0.000000  -0.000000  -0.000000  -0.000000  -0.000000
    19  C    0.000000   0.000000  -0.000000  -0.000000  -0.000000   0.000000
    20  C    0.000000  -0.000000  -0.000000  -0.000000  -0.000000  -0.000000
    21  N    0.000000   0.000000   0.000000   0.000000  -0.000000   0.000000
    22  C    0.000000   0.000000  -0.000000  -0.000000   0.000000   0.000000
    23  C   -0.000179   0.000864   0.000016  -0.000154  -0.000036   0.000000
    24  C    0.000006   0.000002   0.000003   0.000003  -0.000000   0.000000
    25  C   -0.000004  -0.000012  -0.000000  -0.000002   0.000000   0.000000
    26  C    0.000028  -0.000031   0.000001  -0.000019  -0.000000   0.000000
    27  C    0.004196   0.000039   0.000100   0.004575   0.000006  -0.000000
    28  C   -0.008950  -0.002094   0.005521  -0.008375   0.000443   0.000002
    29  H   -0.027960  -0.000179  -0.000048  -0.000048   0.000050   0.000000
    30  H   -0.029245  -0.000045   0.001847  -0.000195   0.003855   0.000005
    31  H    0.581301  -0.000045  -0.000195   0.001847  -0.000160  -0.000000
    32  H   -0.000045   0.549378  -0.027757  -0.027757   0.000040   0.000000
    33  H   -0.000195  -0.027757   0.581118  -0.029094   0.003303   0.000004
    34  H    0.001847  -0.027757  -0.029094   0.581119  -0.000143  -0.000000
    35  H   -0.000160   0.000040   0.003303  -0.000143   0.605949  -0.005542
    36  H   -0.000000   0.000000   0.000004  -0.000000  -0.005542   0.600854
    37  H   -0.000000  -0.000000  -0.000000   0.000000  -0.000213  -0.005003
    38  H   -0.000000   0.000001   0.000000  -0.000000   0.000018  -0.000194
    39  H   -0.000000   0.000000   0.000000   0.000000  -0.000000  -0.000000
    40  H   -0.000000   0.000000   0.000000   0.000000   0.000000  -0.000000
    41  H   -0.000000  -0.000000   0.000000   0.000000   0.000000  -0.000000
    42  H   -0.000000  -0.000000   0.000000   0.000000   0.000000  -0.000000
    43  H    0.000000   0.000001  -0.000000   0.000000  -0.000000  -0.000000
    44  H   -0.000000  -0.000000   0.000000  -0.000000   0.000000   0.000000
    45  H    0.000005   0.000000  -0.000000   0.000004  -0.000000  -0.000000
    46  H    0.003854   0.000040  -0.000143   0.003303   0.000003  -0.000000
              37         38         39         40         41         42
     1  C    0.000000   0.000002   0.000000  -0.000000   0.000000   0.000000
     2  C    0.000008  -0.000162  -0.000000   0.000000  -0.000000  -0.000000
     3  C    0.000000   0.000002   0.000000  -0.000000  -0.000000   0.000000
     4  C    0.001069   0.004937  -0.000000   0.000000   0.000000   0.000001
     5  C    0.004512   0.000606   0.000000  -0.000000   0.000000   0.000000
     6  C   -0.040988   0.004688  -0.000000   0.000000  -0.000000  -0.000000
     7  C    0.356279  -0.040830   0.000000  -0.000000   0.000000   0.000000
     8  C   -0.039242   0.341225   0.000003  -0.000000  -0.000000  -0.000003
     9  C    0.003391  -0.036597  -0.000002   0.000000  -0.000000  -0.000006
    10  N   -0.000104  -0.014538  -0.000088   0.000001  -0.000000  -0.000001
    11  C    0.000004   0.017245   0.001620  -0.000049   0.000015  -0.000170
    12  C   -0.000000  -0.001555  -0.063224  -0.000004   0.000001   0.000006
    13  C    0.000000  -0.000718   0.001401  -0.000000   0.000000  -0.000000
    14  N   -0.000000  -0.000051   0.000829   0.000000  -0.000000   0.000000
    15  C   -0.000000   0.000593   0.377902   0.000361   0.000001  -0.000001
    16  N   -0.000000  -0.000094  -0.045751   0.000489  -0.000081   0.000011
    17  C   -0.000000   0.000473   0.003691  -0.033880   0.003920   0.000622
    18  C    0.000000   0.000019  -0.000320   0.351877  -0.035427   0.003332
    19  C    0.000000  -0.000007   0.000002  -0.045065   0.352231  -0.064269
    20  C   -0.000000  -0.000002   0.000000   0.004529  -0.035097   0.377773
    21  N   -0.000000  -0.000260   0.000012  -0.000408   0.004506  -0.051401
    22  C   -0.000002  -0.001480   0.000880   0.006150   0.000520   0.004177
    23  C    0.000001  -0.000120  -0.000002   0.000000  -0.000000  -0.000006
    24  C   -0.000000  -0.000001   0.000003  -0.000000  -0.000000  -0.000003
    25  C    0.000000   0.000000   0.000000  -0.000000   0.000000   0.000000
    26  C    0.000000   0.000000  -0.000000   0.000000  -0.000000  -0.000000
    27  C    0.000000   0.000000   0.000000  -0.000000   0.000000   0.000000
    28  C   -0.000000   0.000026  -0.000000   0.000000   0.000000   0.000001
    29  H   -0.000000   0.000001  -0.000000   0.000000  -0.000000  -0.000000
    30  H   -0.000000   0.000000  -0.000000  -0.000000  -0.000000  -0.000000
    31  H   -0.000000  -0.000000  -0.000000  -0.000000  -0.000000  -0.000000
    32  H   -0.000000   0.000001   0.000000   0.000000  -0.000000  -0.000000
    33  H   -0.000000   0.000000   0.000000   0.000000   0.000000   0.000000
    34  H    0.000000  -0.000000   0.000000   0.000000   0.000000   0.000000
    35  H   -0.000213   0.000018  -0.000000   0.000000   0.000000   0.000000
    36  H   -0.005003  -0.000194  -0.000000  -0.000000  -0.000000  -0.000000
    37  H    0.598617  -0.005989  -0.000000  -0.000000   0.000000   0.000000
    38  H   -0.005989   0.604962   0.000004   0.000000  -0.000000  -0.000001
    39  H   -0.000000   0.000004   0.545477  -0.000021  -0.000000   0.000000
    40  H   -0.000000   0.000000  -0.000021   0.553315  -0.005484  -0.000145
    41  H    0.000000  -0.000000  -0.000000  -0.005484   0.560596  -0.001465
    42  H    0.000000  -0.000001   0.000000  -0.000145  -0.001465   0.572372
    43  H   -0.000000   0.000009   0.000004   0.000000  -0.000000  -0.000001
    44  H   -0.000000  -0.000000  -0.000000  -0.000000   0.000000   0.000000
    45  H    0.000000  -0.000000  -0.000000  -0.000000  -0.000000  -0.000000
    46  H    0.000000  -0.000000  -0.000000   0.000000   0.000000   0.000000
              43         44         45         46
     1  C    0.000002   0.000000   0.000000  -0.000254
     2  C   -0.000162   0.000008  -0.000143  -0.007922
     3  C    0.000002   0.000000  -0.000000  -0.000172
     4  C    0.000026  -0.000000   0.000002   0.000443
     5  C    0.000000   0.000000  -0.000000   0.000006
     6  C    0.000000   0.000000   0.000000  -0.000000
     7  C    0.000000   0.000000   0.000000   0.000000
     8  C   -0.000001  -0.000000   0.000000  -0.000000
     9  C   -0.000120   0.000001   0.000000  -0.000036
    10  N   -0.014538  -0.000104   0.000004  -0.000085
    11  C    0.017245   0.000004  -0.000000   0.000002
    12  C   -0.001556  -0.000000   0.000000   0.000000
    13  C   -0.000718   0.000000   0.000000  -0.000000
    14  N   -0.000051  -0.000000   0.000000  -0.000000
    15  C    0.000593  -0.000000  -0.000000   0.000000
    16  N   -0.000094  -0.000000   0.000000  -0.000000
    17  C    0.000473  -0.000000   0.000000   0.000000
    18  C    0.000019   0.000000  -0.000000  -0.000000
    19  C   -0.000007   0.000000   0.000000  -0.000000
    20  C   -0.000002  -0.000000  -0.000000  -0.000000
    21  N   -0.000260  -0.000000   0.000000  -0.000000
    22  C   -0.001480  -0.000002   0.000000   0.000000
    23  C   -0.036597   0.003391   0.000909   0.004644
    24  C    0.341225  -0.039242   0.004712   0.000715
    25  C   -0.040830   0.356279  -0.042215   0.005032
    26  C    0.004688  -0.040988   0.357881  -0.042960
    27  C    0.000606   0.004512  -0.039026   0.354946
    28  C    0.004937   0.001069   0.003411  -0.048013
    29  H    0.000001  -0.000000   0.000000   0.000050
    30  H   -0.000000  -0.000000  -0.000000  -0.000160
    31  H    0.000000  -0.000000   0.000005   0.003854
    32  H    0.000001  -0.000000   0.000000   0.000040
    33  H   -0.000000   0.000000  -0.000000  -0.000143
    34  H    0.000000  -0.000000   0.000004   0.003303
    35  H   -0.000000   0.000000  -0.000000   0.000003
    36  H   -0.000000   0.000000  -0.000000  -0.000000
    37  H   -0.000000  -0.000000   0.000000   0.000000
    38  H    0.000009  -0.000000  -0.000000  -0.000000
    39  H    0.000004  -0.000000  -0.000000  -0.000000
    40  H    0.000000  -0.000000  -0.000000   0.000000
    41  H   -0.000000   0.000000  -0.000000   0.000000
    42  H   -0.000001   0.000000  -0.000000   0.000000
    43  H    0.604962  -0.005989  -0.000194   0.000018
    44  H   -0.005989   0.598617  -0.005003  -0.000213
    45  H   -0.000194  -0.005003   0.600854  -0.005542
    46  H    0.000018  -0.000213  -0.005542   0.605949
 Mulliken charges:
               1
     1  C   -0.438111
     2  C   -0.040529
     3  C   -0.435242
     4  C    0.122661
     5  C   -0.210534
     6  C   -0.130728
     7  C   -0.138199
     8  C   -0.177541
     9  C    0.329172
    10  N   -0.754736
    11  C    0.199505
    12  C    0.118649
    13  C    0.249455
    14  N   -0.462821
    15  C    0.028286
    16  N   -0.486000
    17  C    0.267659
    18  C   -0.102136
    19  C   -0.150804
    20  C    0.052433
    21  N   -0.476012
    22  C    0.279376
    23  C    0.329172
    24  C   -0.177541
    25  C   -0.138199
    26  C   -0.130727
    27  C   -0.210534
    28  C    0.122659
    29  H    0.157501
    30  H    0.142072
    31  H    0.142071
    32  H    0.162382
    33  H    0.141957
    34  H    0.141957
    35  H    0.126495
    36  H    0.124342
    37  H    0.127660
    38  H    0.127788
    39  H    0.177578
    40  H    0.168335
    41  H    0.155764
    42  H    0.159178
    43  H    0.127788
    44  H    0.127660
    45  H    0.124342
    46  H    0.126495
 Sum of Mulliken charges =  -0.00000
 Mulliken charges with hydrogens summed into heavy atoms:
               1
     1  C    0.003532
     2  C   -0.040529
     3  C    0.011055
     4  C    0.122661
     5  C   -0.084038
     6  C   -0.006386
     7  C   -0.010539
     8  C   -0.049753
     9  C    0.329172
    10  N   -0.754736
    11  C    0.199505
    12  C    0.118649
    13  C    0.249455
    14  N   -0.462821
    15  C    0.205864
    16  N   -0.486000
    17  C    0.267659
    18  C    0.066199
    19  C    0.004960
    20  C    0.211611
    21  N   -0.476012
    22  C    0.279376
    23  C    0.329172
    24  C   -0.049752
    25  C   -0.010539
    26  C   -0.006385
    27  C   -0.084039
    28  C    0.122659
 Electronic spatial extent (au):  <R**2>=           8600.1109
 Charge=              0.0000 electrons
 Dipole moment (field-independent basis, Debye):
    X=             -2.6361    Y=             -0.0001    Z=             -4.1568  Tot=              4.9222
 Quadrupole moment (field-independent basis, Debye-Ang):
   XX=           -140.8971   YY=           -153.3077   ZZ=           -168.7447
   XY=              0.0001   XZ=              3.3710   YZ=             -0.0001
 Traceless Quadrupole moment (field-independent basis, Debye-Ang):
   XX=             13.4194   YY=              1.0088   ZZ=            -14.4282
   XY=              0.0001   XZ=              3.3710   YZ=             -0.0001
 Octapole moment (field-independent basis, Debye-Ang**2):
  XXX=             -7.8851  YYY=              0.0002  ZZZ=            -97.6288  XYY=             11.3022
  XXY=             -0.0006  XXZ=            -51.2883  XZZ=            -55.1888  YZZ=             -0.0014
  YYZ=              0.9738  XYZ=             -0.0007
 Hexadecapole moment (field-independent basis, Debye-Ang**3):
 XXXX=          -6099.1990 YYYY=          -2988.4504 ZZZZ=          -2433.1101 XXXY=              0.0028
 XXXZ=            199.9568 YYYX=             -0.0010 YYYZ=             -0.0032 ZZZX=             61.8237
 ZZZY=             -0.0004 XXYY=          -1565.0440 XXZZ=          -1288.8040 YYZZ=           -977.2836
 XXYZ=              0.0024 YYXZ=            -37.6018 ZZXY=              0.0014
 N-N= 2.501057249212D+03 E-N=-7.654200681447D+03  KE= 1.133465704620D+03
 1\1\GINC-CNODE14\SP\RB3LYP TD-FC\6-31G(d)\C24H18N4\JUNHKIM\19-Jan-2026
 \0\\# b3lyp/6-31g* TD=(Nstates=1,50-50) Geom=Check Guess=Read SCF=XQC\
 \TD-DFT calculation\\0,1\C,0,-3.0268437824,-0.2946289086,1.9766396895\
 C,0,-2.5697323012,0.0934290295,0.5442065789\C,0,-3.8090870907,0.476724
 2389,-0.3097008797\C,0,-1.8747177109,-1.1115025194,-0.1010778725\C,0,-
 2.5708370559,-2.3210285131,-0.2271837745\C,0,-2.0093270264,-3.45598129
 84,-0.8051972396\C,0,-0.701330121,-3.3904600774,-1.2805480384\C,0,0.01
 67660314,-2.2055491946,-1.1753465592\C,0,-0.5556751788,-1.0609338812,-
 0.5905070946\N,0,0.1880474084,0.1373293218,-0.5156513533\C,0,1.5508112
 707,0.1205770209,-0.9124877119\C,0,1.9285061389,0.4733533653,-2.202145
 6747\C,0,0.9634679715,0.8676877242,-3.1834868681\N,0,0.2234989448,1.19
 50877551,-4.0185817629\C,0,3.3119437314,0.4432672611,-2.5618304675\N,0
 ,4.2758302351,0.0980062424,-1.7420738617\C,0,3.9284750255,-0.252606586
 8,-0.4696207142\C,0,4.9457128508,-0.6313037228,0.4427932554\C,0,4.5905
 449516,-0.9833493001,1.7225675546\C,0,3.2181811031,-0.9554485846,2.085
 7910747\N,0,2.2414992759,-0.6106819773,1.2719107296\C,0,2.5791261319,-
 0.259834798,0.0019113424\C,0,-0.3192734972,1.2908255279,0.1220263106\C
 ,0,0.4838339848,2.4409124718,0.2324274297\C,0,0.0009100917,3.595542144
 5,0.8360477796\C,0,-1.2974222024,3.6261884271,1.3405287358\C,0,-2.0876
 581294,2.4857354789,1.2291495014\C,0,-1.6319531332,1.303554601,0.63063
 41876\H,0,-2.1658118374,-0.5684396126,2.594749617\H,0,-3.7153146516,-1
 .1455048589,1.9551488276\H,0,-3.5462924907,0.53628276,2.4646983815\H,0
 ,-3.508303212,0.7541173392,-1.3250297912\H,0,-4.5121726781,-0.36005696
 54,-0.3797361755\H,0,-4.3427426019,1.3255243725,0.1309656636\H,0,-3.59
 16407055,-2.375509034,0.139544005\H,0,-2.5858147949,-4.3729559626,-0.8
 834220373\H,0,-0.2332292548,-4.2578853794,-1.7378089129\H,0,1.03136952
 97,-2.1710126869,-1.5545940393\H,0,3.5950601013,0.7217593698,-3.574932
 3404\H,0,5.9747336559,-0.6300320866,0.097196713\H,0,5.3354209585,-1.28
 00400578,2.4546782966\H,0,2.9247713476,-1.2324344056,3.0973383442\H,0,
 1.4944924972,2.4362025491,-0.1587108082\H,0,0.6439642693,4.4685860895,
 0.9061061659\H,0,-1.6917125191,4.5217667942,1.8114579776\H,0,-3.100074
 5313,2.5147205272,1.6211568156\\Version=ES64L-G16RevB.01\State=1-A\HF=
 -1144.3920567\RMSD=3.244e-09\PG=C01 [X(C24H18N4)]\\@


 There was a great rattling of the words for the fewness of ideas.
                   -- Charles Baxter in Gryphon
 Job cpu time:       0 days  0 hours 38 minutes 17.5 seconds.
 Elapsed time:       0 days  0 hours  2 minutes 23.8 seconds.
 File lengths (MBytes):  RWF=   1044 Int=      0 D2E=      0 Chk=     67 Scr=      2
 Normal termination of Gaussian 16 at Mon Jan 19 14:52:13 2026.
