 Entering Gaussian System, Link 0=g16
 Initial command:
 /appl/Gaussian16/AVX_revB01/g16/l1.exe "/home/junhkim/WORK/Review_DD/TADF-Design/data/td_dft/results/mol_410/Gau-3197393.inp" -scrdir="/home/junhkim/WORK/Review_DD/TADF-Design/data/td_dft/results/mol_410/"
 Entering Link 1 = /appl/Gaussian16/AVX_revB01/g16/l1.exe PID=   3197395.
  
 Copyright (c) 1988-2017, Gaussian, Inc.  All Rights Reserved.
  
 This is part of the Gaussian(R) 16 program.  It is based on
 the Gaussian(R) 09 system (copyright 2009, Gaussian, Inc.),
 the Gaussian(R) 03 system (copyright 2003, Gaussian, Inc.),
 the Gaussian(R) 98 system (copyright 1998, Gaussian, Inc.),
 the Gaussian(R) 94 system (copyright 1995, Gaussian, Inc.),
 the Gaussian 92(TM) system (copyright 1992, Gaussian, Inc.),
 the Gaussian 90(TM) system (copyright 1990, Gaussian, Inc.),
 the Gaussian 88(TM) system (copyright 1988, Gaussian, Inc.),
 the Gaussian 86(TM) system (copyright 1986, Carnegie Mellon
 University), and the Gaussian 82(TM) system (copyright 1983,
 Carnegie Mellon University). Gaussian is a federally registered
 trademark of Gaussian, Inc.
  
 This software contains proprietary and confidential information,
 including trade secrets, belonging to Gaussian, Inc.
  
 This software is provided under written license and may be
 used, copied, transmitted, or stored only in accord with that
 written license.
  
 The following legend is applicable only to US Government
 contracts under FAR:
  
                    RESTRICTED RIGHTS LEGEND
  
 Use, reproduction and disclosure by the US Government is
 subject to restrictions as set forth in subparagraphs (a)
 and (c) of the Commercial Computer Software - Restricted
 Rights clause in FAR 52.227-19.
  
 Gaussian, Inc.
 340 Quinnipiac St., Bldg. 40, Wallingford CT 06492
  
  
 ---------------------------------------------------------------
 Warning -- This program may not be used in any manner that
 competes with the business of Gaussian, Inc. or will provide
 assistance to any competitor of Gaussian, Inc.  The licensee
 of this program is prohibited from giving any competitor of
 Gaussian, Inc. access to this program.  By using this program,
 the user acknowledges that Gaussian, Inc. is engaged in the
 business of creating and licensing software in the field of
 computational chemistry and represents and warrants to the
 licensee that it is not a competitor of Gaussian, Inc. and that
 it will not use this program in any manner prohibited above.
 ---------------------------------------------------------------
  

 Cite this work as:
 Gaussian 16, Revision B.01,
 M. J. Frisch, G. W. Trucks, H. B. Schlegel, G. E. Scuseria, 
 M. A. Robb, J. R. Cheeseman, G. Scalmani, V. Barone, 
 G. A. Petersson, H. Nakatsuji, X. Li, M. Caricato, A. V. Marenich, 
 J. Bloino, B. G. Janesko, R. Gomperts, B. Mennucci, H. P. Hratchian, 
 J. V. Ortiz, A. F. Izmaylov, J. L. Sonnenberg, D. Williams-Young, 
 F. Ding, F. Lipparini, F. Egidi, J. Goings, B. Peng, A. Petrone, 
 T. Henderson, D. Ranasinghe, V. G. Zakrzewski, J. Gao, N. Rega, 
 G. Zheng, W. Liang, M. Hada, M. Ehara, K. Toyota, R. Fukuda, 
 J. Hasegawa, M. Ishida, T. Nakajima, Y. Honda, O. Kitao, H. Nakai, 
 T. Vreven, K. Throssell, J. A. Montgomery, Jr., J. E. Peralta, 
 F. Ogliaro, M. J. Bearpark, J. J. Heyd, E. N. Brothers, K. N. Kudin, 
 V. N. Staroverov, T. A. Keith, R. Kobayashi, J. Normand, 
 K. Raghavachari, A. P. Rendell, J. C. Burant, S. S. Iyengar, 
 J. Tomasi, M. Cossi, J. M. Millam, M. Klene, C. Adamo, R. Cammi, 
 J. W. Ochterski, R. L. Martin, K. Morokuma, O. Farkas, 
 J. B. Foresman, and D. J. Fox, Gaussian, Inc., Wallingford CT, 2016.
 
 ******************************************
 Gaussian 16:  ES64L-G16RevB.01 20-Dec-2017
                19-Jan-2026 
 ******************************************
 %mem=60GB
 %chk=opt.chk
 %nprocshared=16
 Will use up to   16 processors via shared memory.
 ---------------------------
 #P b3lyp/6-31g* opt SCF=XQC
 ---------------------------
 1/18=20,19=15,26=3,38=1/1,3;
 2/9=110,12=2,17=6,18=5,40=1/2;
 3/5=1,6=6,7=1,11=2,25=1,30=1,71=1,74=-5/1,2,3;
 4//1;
 5/5=2,8=3,13=1,38=5/2,8;
 6/7=2,8=2,9=2,10=2,28=1/1;
 7//1,2,3,16;
 1/18=20,19=15,26=3/3(2);
 2/9=110/2;
 99//99;
 2/9=110/2;
 3/5=1,6=6,7=1,11=2,25=1,30=1,71=1,74=-5/1,2,3;
 4/5=5,16=3,69=1/1;
 5/5=2,8=3,13=1,38=5/2,8;
 7//1,2,3,16;
 1/18=20,19=15,26=3/3(-5);
 2/9=110/2;
 6/7=2,8=2,9=2,10=2,19=2,28=1/1;
 99/9=1/99;
 Leave Link    1 at Mon Jan 19 00:00:04 2026, MaxMem=  8053063680 cpu:               0.8 elap:               0.1
 (Enter /appl/Gaussian16/AVX_revB01/g16/l101.exe)
 ------------------------------
 Gaussian input prepared by ASE
 ------------------------------
 Symbolic Z-matrix:
 Charge =  0 Multiplicity = 1
 C                    -1.60065  -2.66062  -0.09691 
 N                    -1.2168   -1.27683  -0.06055 
 C                    -2.06778  -0.18692  -0.06211 
 C                    -3.4519   -0.16145  -0.10075 
 C                    -4.07372   1.07578  -0.0933 
 C                    -3.34382   2.2605   -0.04877 
 C                    -1.96233   2.24405  -0.01012 
 C                    -1.31945   1.01415  -0.0168 
 C                     0.06024   0.62087   0.01398 
 N                     1.16853   1.31004   0.05888 
 C                     2.30225   0.57208   0.07587 
 C                     3.54785   1.22509   0.12395 
 C                     4.68183   0.45609   0.14034 
 Cl                    6.24611   1.18176   0.19881 
 C                     4.57026  -0.949     0.10903 
 N                     3.43168  -1.57489   0.06451 
 C                     2.29248  -0.86225   0.04678 
 N                     1.14218  -1.56326   0.00029 
 C                     0.05995  -0.82693  -0.01523 
 H                    -2.16274  -2.87877  -1.00744 
 H                    -0.68785  -3.25296  -0.08093 
 H                    -2.21479  -2.91096   0.77072 
 H                    -4.02874  -1.07252  -0.13542 
 H                    -5.1522    1.12191  -0.12288 
 H                    -3.86893   3.20344  -0.04459 
 H                    -1.38502   3.15409   0.02459 
 H                     3.57457   2.30333   0.14641 
 H                     5.45881  -1.56581   0.12164 
 
 ITRead=  0  0  0  0  0  0  0  0  0  0  0  0  0  0  0  0  0  0  0  0
 ITRead=  0  0  0  0  0  0  0  0
 MicOpt= -1 -1 -1 -1 -1 -1 -1 -1 -1 -1 -1 -1 -1 -1 -1 -1 -1 -1 -1 -1
 MicOpt= -1 -1 -1 -1 -1 -1 -1 -1
 NAtoms=     28 NQM=       28 NQMF=       0 NMMI=      0 NMMIF=      0
                NMic=       0 NMicF=      0.
                    Isotopes and Nuclear Properties:
 (Nuclear quadrupole moments (NQMom) in fm**2, nuclear magnetic moments (NMagM)
  in nuclear magnetons)

  Atom         1           2           3           4           5           6           7           8           9          10
 IAtWgt=          12          14          12          12          12          12          12          12          12          14
 AtmWgt=  12.0000000  14.0030740  12.0000000  12.0000000  12.0000000  12.0000000  12.0000000  12.0000000  12.0000000  14.0030740
 NucSpn=           0           2           0           0           0           0           0           0           0           2
 AtZEff=  -0.0000000  -0.0000000  -0.0000000  -0.0000000  -0.0000000  -0.0000000  -0.0000000  -0.0000000  -0.0000000  -0.0000000
 NQMom=    0.0000000   2.0440000   0.0000000   0.0000000   0.0000000   0.0000000   0.0000000   0.0000000   0.0000000   2.0440000
 NMagM=    0.0000000   0.4037610   0.0000000   0.0000000   0.0000000   0.0000000   0.0000000   0.0000000   0.0000000   0.4037610
 AtZNuc=   6.0000000   7.0000000   6.0000000   6.0000000   6.0000000   6.0000000   6.0000000   6.0000000   6.0000000   7.0000000

  Atom        11          12          13          14          15          16          17          18          19          20
 IAtWgt=          12          12          12          35          12          14          12          14          12           1
 AtmWgt=  12.0000000  12.0000000  12.0000000  34.9688527  12.0000000  14.0030740  12.0000000  14.0030740  12.0000000   1.0078250
 NucSpn=           0           0           0           3           0           2           0           2           0           1
 AtZEff=  -0.0000000  -0.0000000  -0.0000000  -0.0000000  -0.0000000  -0.0000000  -0.0000000  -0.0000000  -0.0000000  -0.0000000
 NQMom=    0.0000000   0.0000000   0.0000000  -8.1650000   0.0000000   2.0440000   0.0000000   2.0440000   0.0000000   0.0000000
 NMagM=    0.0000000   0.0000000   0.0000000   0.8218740   0.0000000   0.4037610   0.0000000   0.4037610   0.0000000   2.7928460
 AtZNuc=   6.0000000   6.0000000   6.0000000  17.0000000   6.0000000   7.0000000   6.0000000   7.0000000   6.0000000   1.0000000

  Atom        21          22          23          24          25          26          27          28
 IAtWgt=           1           1           1           1           1           1           1           1
 AtmWgt=   1.0078250   1.0078250   1.0078250   1.0078250   1.0078250   1.0078250   1.0078250   1.0078250
 NucSpn=           1           1           1           1           1           1           1           1
 AtZEff=  -0.0000000  -0.0000000  -0.0000000  -0.0000000  -0.0000000  -0.0000000  -0.0000000  -0.0000000
 NQMom=    0.0000000   0.0000000   0.0000000   0.0000000   0.0000000   0.0000000   0.0000000   0.0000000
 NMagM=    2.7928460   2.7928460   2.7928460   2.7928460   2.7928460   2.7928460   2.7928460   2.7928460
 AtZNuc=   1.0000000   1.0000000   1.0000000   1.0000000   1.0000000   1.0000000   1.0000000   1.0000000
 Leave Link  101 at Mon Jan 19 00:00:05 2026, MaxMem=  8053063680 cpu:              11.0 elap:               0.8
 (Enter /appl/Gaussian16/AVX_revB01/g16/l103.exe)

 GradGradGradGradGradGradGradGradGradGradGradGradGradGradGradGradGradGrad
 Berny optimization.
 Initialization pass.
                           ----------------------------
                           !    Initial Parameters    !
                           ! (Angstroms and Degrees)  !
 --------------------------                            --------------------------
 ! Name  Definition              Value          Derivative Info.                !
 --------------------------------------------------------------------------------
 ! R1    R(1,2)                  1.4365         estimate D2E/DX2                !
 ! R2    R(1,20)                 1.0921         estimate D2E/DX2                !
 ! R3    R(1,21)                 1.0883         estimate D2E/DX2                !
 ! R4    R(1,22)                 1.0921         estimate D2E/DX2                !
 ! R5    R(2,3)                  1.3828         estimate D2E/DX2                !
 ! R6    R(2,19)                 1.3545         estimate D2E/DX2                !
 ! R7    R(3,4)                  1.3849         estimate D2E/DX2                !
 ! R8    R(3,8)                  1.4159         estimate D2E/DX2                !
 ! R9    R(4,5)                  1.3847         estimate D2E/DX2                !
 ! R10   R(4,23)                 1.0789         estimate D2E/DX2                !
 ! R11   R(5,6)                  1.3922         estimate D2E/DX2                !
 ! R12   R(5,24)                 1.0799         estimate D2E/DX2                !
 ! R13   R(6,7)                  1.3821         estimate D2E/DX2                !
 ! R14   R(6,25)                 1.0793         estimate D2E/DX2                !
 ! R15   R(7,8)                  1.3878         estimate D2E/DX2                !
 ! R16   R(7,26)                 1.0783         estimate D2E/DX2                !
 ! R17   R(8,9)                  1.435          estimate D2E/DX2                !
 ! R18   R(9,10)                 1.3059         estimate D2E/DX2                !
 ! R19   R(9,19)                 1.4481         estimate D2E/DX2                !
 ! R20   R(10,11)                1.3529         estimate D2E/DX2                !
 ! R21   R(11,12)                1.4072         estimate D2E/DX2                !
 ! R22   R(11,17)                1.4347         estimate D2E/DX2                !
 ! R23   R(12,13)                1.3702         estimate D2E/DX2                !
 ! R24   R(12,27)                1.0788         estimate D2E/DX2                !
 ! R25   R(13,14)                1.7254         estimate D2E/DX2                !
 ! R26   R(13,15)                1.4099         estimate D2E/DX2                !
 ! R27   R(15,16)                1.3            estimate D2E/DX2                !
 ! R28   R(15,28)                1.0817         estimate D2E/DX2                !
 ! R29   R(16,17)                1.3439         estimate D2E/DX2                !
 ! R30   R(17,18)                1.3479         estimate D2E/DX2                !
 ! R31   R(18,19)                1.3091         estimate D2E/DX2                !
 ! A1    A(2,1,20)             110.5526         estimate D2E/DX2                !
 ! A2    A(2,1,21)             107.4474         estimate D2E/DX2                !
 ! A3    A(2,1,22)             110.5471         estimate D2E/DX2                !
 ! A4    A(20,1,21)            109.5863         estimate D2E/DX2                !
 ! A5    A(20,1,22)            109.097          estimate D2E/DX2                !
 ! A6    A(21,1,22)            109.5885         estimate D2E/DX2                !
 ! A7    A(1,2,3)              126.4992         estimate D2E/DX2                !
 ! A8    A(1,2,19)             124.9384         estimate D2E/DX2                !
 ! A9    A(3,2,19)             108.5623         estimate D2E/DX2                !
 ! A10   A(2,3,4)              129.0204         estimate D2E/DX2                !
 ! A11   A(2,3,8)              110.0801         estimate D2E/DX2                !
 ! A12   A(4,3,8)              120.8995         estimate D2E/DX2                !
 ! A13   A(3,4,5)              117.7161         estimate D2E/DX2                !
 ! A14   A(3,4,23)             121.3145         estimate D2E/DX2                !
 ! A15   A(5,4,23)             120.9695         estimate D2E/DX2                !
 ! A16   A(4,5,6)              121.6721         estimate D2E/DX2                !
 ! A17   A(4,5,24)             119.1107         estimate D2E/DX2                !
 ! A18   A(6,5,24)             119.2172         estimate D2E/DX2                !
 ! A19   A(5,6,7)              120.9835         estimate D2E/DX2                !
 ! A20   A(5,6,25)             119.2411         estimate D2E/DX2                !
 ! A21   A(7,6,25)             119.7754         estimate D2E/DX2                !
 ! A22   A(6,7,8)              118.258          estimate D2E/DX2                !
 ! A23   A(6,7,26)             121.7362         estimate D2E/DX2                !
 ! A24   A(8,7,26)             120.0059         estimate D2E/DX2                !
 ! A25   A(3,8,7)              120.4709         estimate D2E/DX2                !
 ! A26   A(3,8,9)              106.0432         estimate D2E/DX2                !
 ! A27   A(7,8,9)              133.4859         estimate D2E/DX2                !
 ! A28   A(8,9,10)             132.2291         estimate D2E/DX2                !
 ! A29   A(8,9,19)             105.8661         estimate D2E/DX2                !
 ! A30   A(10,9,19)            121.9048         estimate D2E/DX2                !
 ! A31   A(9,10,11)            115.0739         estimate D2E/DX2                !
 ! A32   A(10,11,12)           119.2803         estimate D2E/DX2                !
 ! A33   A(10,11,17)           122.6424         estimate D2E/DX2                !
 ! A34   A(12,11,17)           118.0773         estimate D2E/DX2                !
 ! A35   A(11,12,13)           118.198          estimate D2E/DX2                !
 ! A36   A(11,12,27)           119.1066         estimate D2E/DX2                !
 ! A37   A(13,12,27)           122.6954         estimate D2E/DX2                !
 ! A38   A(12,13,14)           120.9758         estimate D2E/DX2                !
 ! A39   A(12,13,15)           119.5746         estimate D2E/DX2                !
 ! A40   A(14,13,15)           119.4496         estimate D2E/DX2                !
 ! A41   A(13,15,16)           123.3589         estimate D2E/DX2                !
 ! A42   A(13,15,28)           120.1997         estimate D2E/DX2                !
 ! A43   A(16,15,28)           116.4414         estimate D2E/DX2                !
 ! A44   A(15,16,17)           119.1815         estimate D2E/DX2                !
 ! A45   A(11,17,16)           121.6097         estimate D2E/DX2                !
 ! A46   A(11,17,18)           121.7682         estimate D2E/DX2                !
 ! A47   A(16,17,18)           116.6221         estimate D2E/DX2                !
 ! A48   A(17,18,19)           114.419          estimate D2E/DX2                !
 ! A49   A(2,19,9)             109.4483         estimate D2E/DX2                !
 ! A50   A(2,19,18)            126.36           estimate D2E/DX2                !
 ! A51   A(9,19,18)            124.1917         estimate D2E/DX2                !
 ! D1    D(20,1,2,3)            60.6381         estimate D2E/DX2                !
 ! D2    D(20,1,2,19)         -119.5335         estimate D2E/DX2                !
 ! D3    D(21,1,2,3)          -179.8162         estimate D2E/DX2                !
 ! D4    D(21,1,2,19)            0.0122         estimate D2E/DX2                !
 ! D5    D(22,1,2,3)           -60.2711         estimate D2E/DX2                !
 ! D6    D(22,1,2,19)          119.5573         estimate D2E/DX2                !
 ! D7    D(1,2,3,4)             -0.1532         estimate D2E/DX2                !
 ! D8    D(1,2,3,8)            179.8764         estimate D2E/DX2                !
 ! D9    D(19,2,3,4)           179.9952         estimate D2E/DX2                !
 ! D10   D(19,2,3,8)             0.0248         estimate D2E/DX2                !
 ! D11   D(1,2,19,9)          -179.8812         estimate D2E/DX2                !
 ! D12   D(1,2,19,18)            0.1377         estimate D2E/DX2                !
 ! D13   D(3,2,19,9)            -0.0267         estimate D2E/DX2                !
 ! D14   D(3,2,19,18)          179.9922         estimate D2E/DX2                !
 ! D15   D(2,3,4,5)           -179.9757         estimate D2E/DX2                !
 ! D16   D(2,3,4,23)             0.0292         estimate D2E/DX2                !
 ! D17   D(8,3,4,5)             -0.0081         estimate D2E/DX2                !
 ! D18   D(8,3,4,23)           179.9969         estimate D2E/DX2                !
 ! D19   D(2,3,8,7)            179.9808         estimate D2E/DX2                !
 ! D20   D(2,3,8,9)             -0.0127         estimate D2E/DX2                !
 ! D21   D(4,3,8,7)              0.0076         estimate D2E/DX2                !
 ! D22   D(4,3,8,9)           -179.9859         estimate D2E/DX2                !
 ! D23   D(3,4,5,6)              0.0042         estimate D2E/DX2                !
 ! D24   D(3,4,5,24)           179.9999         estimate D2E/DX2                !
 ! D25   D(23,4,5,6)           179.9993         estimate D2E/DX2                !
 ! D26   D(23,4,5,24)           -0.005          estimate D2E/DX2                !
 ! D27   D(4,5,6,7)              0.0003         estimate D2E/DX2                !
 ! D28   D(4,5,6,25)           179.9968         estimate D2E/DX2                !
 ! D29   D(24,5,6,7)          -179.9954         estimate D2E/DX2                !
 ! D30   D(24,5,6,25)            0.0011         estimate D2E/DX2                !
 ! D31   D(5,6,7,8)             -0.0009         estimate D2E/DX2                !
 ! D32   D(5,6,7,26)          -179.9983         estimate D2E/DX2                !
 ! D33   D(25,6,7,8)          -179.9974         estimate D2E/DX2                !
 ! D34   D(25,6,7,26)            0.0052         estimate D2E/DX2                !
 ! D35   D(6,7,8,3)             -0.0029         estimate D2E/DX2                !
 ! D36   D(6,7,8,9)            179.9885         estimate D2E/DX2                !
 ! D37   D(26,7,8,3)           179.9945         estimate D2E/DX2                !
 ! D38   D(26,7,8,9)            -0.0141         estimate D2E/DX2                !
 ! D39   D(3,8,9,10)           179.9907         estimate D2E/DX2                !
 ! D40   D(3,8,9,19)            -0.0034         estimate D2E/DX2                !
 ! D41   D(7,8,9,10)            -0.0016         estimate D2E/DX2                !
 ! D42   D(7,8,9,19)          -179.9957         estimate D2E/DX2                !
 ! D43   D(8,9,10,11)          179.9988         estimate D2E/DX2                !
 ! D44   D(19,9,10,11)          -0.0079         estimate D2E/DX2                !
 ! D45   D(8,9,19,2)             0.0186         estimate D2E/DX2                !
 ! D46   D(8,9,19,18)         -179.9998         estimate D2E/DX2                !
 ! D47   D(10,9,19,2)         -179.9762         estimate D2E/DX2                !
 ! D48   D(10,9,19,18)           0.0054         estimate D2E/DX2                !
 ! D49   D(9,10,11,12)        -179.9975         estimate D2E/DX2                !
 ! D50   D(9,10,11,17)           0.0028         estimate D2E/DX2                !
 ! D51   D(10,11,12,13)        179.9995         estimate D2E/DX2                !
 ! D52   D(10,11,12,27)          0.0032         estimate D2E/DX2                !
 ! D53   D(17,11,12,13)         -0.0008         estimate D2E/DX2                !
 ! D54   D(17,11,12,27)       -179.9971         estimate D2E/DX2                !
 ! D55   D(10,11,17,16)       -179.9962         estimate D2E/DX2                !
 ! D56   D(10,11,17,18)          0.0058         estimate D2E/DX2                !
 ! D57   D(12,11,17,16)          0.0041         estimate D2E/DX2                !
 ! D58   D(12,11,17,18)       -179.9939         estimate D2E/DX2                !
 ! D59   D(11,12,13,14)        179.9998         estimate D2E/DX2                !
 ! D60   D(11,12,13,15)         -0.0019         estimate D2E/DX2                !
 ! D61   D(27,12,13,14)         -0.0041         estimate D2E/DX2                !
 ! D62   D(27,12,13,15)        179.9943         estimate D2E/DX2                !
 ! D63   D(12,13,15,16)          0.0016         estimate D2E/DX2                !
 ! D64   D(12,13,15,28)       -179.997          estimate D2E/DX2                !
 ! D65   D(14,13,15,16)        180.0            estimate D2E/DX2                !
 ! D66   D(14,13,15,28)          0.0014         estimate D2E/DX2                !
 ! D67   D(13,15,16,17)          0.0017         estimate D2E/DX2                !
 ! D68   D(28,15,16,17)       -179.9997         estimate D2E/DX2                !
 ! D69   D(15,16,17,11)         -0.0045         estimate D2E/DX2                !
 ! D70   D(15,16,17,18)        179.9936         estimate D2E/DX2                !
 ! D71   D(11,17,18,19)         -0.0083         estimate D2E/DX2                !
 ! D72   D(16,17,18,19)        179.9936         estimate D2E/DX2                !
 ! D73   D(17,18,19,2)         179.9816         estimate D2E/DX2                !
 ! D74   D(17,18,19,9)           0.0032         estimate D2E/DX2                !
 --------------------------------------------------------------------------------
 Trust Radius=3.00D-01 FncErr=1.00D-07 GrdErr=1.00D-06 EigMax=2.50D+02 EigMin=1.00D-04
 Number of steps in this run=    166 maximum allowed number of steps=    168.
 GradGradGradGradGradGradGradGradGradGradGradGradGradGradGradGradGradGrad

 Leave Link  103 at Mon Jan 19 00:00:06 2026, MaxMem=  8053063680 cpu:               0.2 elap:               0.1
 (Enter /appl/Gaussian16/AVX_revB01/g16/l202.exe)
                          Input orientation:                          
 ---------------------------------------------------------------------
 Center     Atomic      Atomic             Coordinates (Angstroms)
 Number     Number       Type             X           Y           Z
 ---------------------------------------------------------------------
      1          6           0       -1.600647   -2.660623   -0.096908
      2          7           0       -1.216803   -1.276829   -0.060546
      3          6           0       -2.067781   -0.186921   -0.062107
      4          6           0       -3.451897   -0.161451   -0.100745
      5          6           0       -4.073720    1.075781   -0.093300
      6          6           0       -3.343816    2.260503   -0.048766
      7          6           0       -1.962334    2.244048   -0.010115
      8          6           0       -1.319451    1.014155   -0.016805
      9          6           0        0.060239    0.620867    0.013977
     10          7           0        1.168528    1.310039    0.058875
     11          6           0        2.302255    0.572080    0.075870
     12          6           0        3.547849    1.225086    0.123946
     13          6           0        4.681833    0.456092    0.140337
     14         17           0        6.246108    1.181757    0.198812
     15          6           0        4.570260   -0.948999    0.109031
     16          7           0        3.431679   -1.574888    0.064511
     17          6           0        2.292478   -0.862247    0.046777
     18          7           0        1.142180   -1.563260    0.000289
     19          6           0        0.059948   -0.826934   -0.015231
     20          1           0       -2.162742   -2.878774   -1.007442
     21          1           0       -0.687853   -3.252961   -0.080935
     22          1           0       -2.214790   -2.910959    0.770719
     23          1           0       -4.028743   -1.072520   -0.135420
     24          1           0       -5.152197    1.121907   -0.122876
     25          1           0       -3.868935    3.203444   -0.044589
     26          1           0       -1.385024    3.154089    0.024590
     27          1           0        3.574569    2.303326    0.146408
     28          1           0        5.458807   -1.565807    0.121638
 ---------------------------------------------------------------------
                    Distance matrix (angstroms):
                    1          2          3          4          5
     1  C    0.000000
     2  N    1.436504   0.000000
     3  C    2.517664   1.382775   0.000000
     4  C    3.110145   2.498265   1.384889   0.000000
     5  C    4.480716   3.701057   2.370481   1.384725   0.000000
     6  C    5.220961   4.127595   2.760131   2.424922   1.392232
     7  C    4.918755   3.599296   2.433810   2.830802   2.414482
     8  C    3.686391   2.293699   1.415850   2.436478   2.756021
     9  C    3.679541   2.288590   2.277451   3.600040   4.160298
    10  N    4.843424   3.520789   3.567803   4.851710   5.249686
    11  C    5.070786   3.977543   4.437605   5.803407   6.398077
    12  C    6.454032   5.384749   5.793417   7.139287   7.626126
    13  C    7.017104   6.151201   6.783195   8.160701   8.780564
    14  Cl   8.742019   7.861740   8.429834   9.795164  10.324505
    15  C    6.407196   5.798821   6.683834   8.063451   8.880262
    16  N    5.150649   4.659706   5.673319   7.029134   7.961279
    17  C    4.290831   3.535315   4.413591   5.788845   6.656129
    18  N    2.955800   2.377088   3.493144   4.804250   5.846273
    19  C    2.475210   1.354457   2.222396   3.575365   4.551223
    20  H    1.092068   2.087496   2.854601   3.141315   4.486200
    21  H    1.088261   2.045801   3.362315   4.147019   5.495658
    22  H    1.092069   2.087429   2.852296   3.138419   4.482883
    23  H    2.901586   2.820346   2.152912   1.078888   2.149184
    24  H    5.188614   4.609245   3.351170   2.130379   1.079867
    25  H    6.287699   5.206429   3.839145   3.391106   2.138051
    26  H    5.819977   4.434927   3.411161   3.909026   3.400346
    27  H    7.175155   5.984779   6.170974   7.450331   7.749881
    28  H    7.147187   6.684346   7.654059   9.023432   9.894103
                    6          7          8          9         10
     6  C    0.000000
     7  C    1.382121   0.000000
     8  C    2.377490   1.387797   0.000000
     9  C    3.778880   2.593472   1.434980   0.000000
    10  N    4.612614   3.267939   2.506654   1.305863   0.000000
    11  C    5.894440   4.581439   3.649763   2.243400   1.352853
    12  C    6.971152   5.605209   4.873900   3.541270   2.381726
    13  C    8.228165   6.882178   6.029223   4.626256   3.616514
    14  Cl   9.653581   8.279530   7.570486   6.213995   5.081128
    15  C    8.541568   7.272174   6.209549   4.776379   4.083816
    16  N    7.786551   6.609479   5.411375   4.023742   3.666700
    17  C    6.444261   5.268371   4.070744   2.680223   2.445862
    18  N    5.894721   4.912607   3.564125   2.437457   2.874018
    19  C    4.595541   3.677034   2.300511   1.448095   2.408546
    20  H    5.359679   5.222846   4.104558   4.269945   5.457155
    21  H    6.119923   5.643264   4.314082   3.946542   4.928151
    22  H    5.356330   5.219917   4.102236   4.268748   5.456224
    23  H    3.403774   3.909651   3.421775   4.428279   5.720661
    24  H    2.138255   3.383362   3.835727   5.238250   6.326135
    25  H    1.079308   2.134656   3.360600   4.702292   5.382538
    26  H    2.154238   1.078270   2.141339   2.916524   3.149971
    27  H    6.921269   5.539431   5.063598   3.898553   2.604479
    28  H    9.599785   8.343003   7.253975   5.825605   5.165359
                   11         12         13         14         15
    11  C    0.000000
    12  C    1.407207   0.000000
    13  C    2.383275   1.370234   0.000000
    14  Cl   3.992593   2.699645   1.725389   0.000000
    15  C    2.731049   2.402539   1.409861   2.712314   0.000000
    16  N    2.425943   2.803013   2.386108   3.941845   1.300033
    17  C    1.434655   2.436980   2.730528   4.453342   2.280283
    18  N    2.431289   3.684754   4.077565   5.798673   3.484375
    19  C    2.644519   4.049149   4.799185   6.507628   4.513674
    20  H    5.746142   7.122678   7.699800   9.415504   7.092521
    21  H    4.857600   6.167338   6.529897   8.235581   5.743873
    22  H    5.746135   7.122723   7.700507   9.416166   7.093942
    23  H    6.544531   7.921553   8.847984  10.524544   8.603363
    24  H    7.477343   8.704157   9.860057  11.403000   9.943268
    25  H    6.709856   7.677954   8.983194  10.317972   9.406720
    26  H    4.501713   5.297561   6.640733   7.883820   7.232417
    27  H    2.149644   1.078804   2.153681   2.897893   3.401531
    28  H    3.812674   3.382434   2.166129   2.859180   1.081725
                   16         17         18         19         20
    16  N    0.000000
    17  C    1.343856   0.000000
    18  N    2.290429   1.347875   0.000000
    19  C    3.454615   2.233670   1.309062   0.000000
    20  H    5.843521   5.002674   3.697108   3.183532   0.000000
    21  H    4.450576   3.822852   2.492129   2.539514   1.781496
    22  H    5.845205   5.003676   3.698527   3.183600   1.779213
    23  H    7.479989   6.327341   5.195930   4.097822   2.739513
    24  H    8.999485   7.706415   6.844302   5.565610   5.071956
    25  H    8.726014   7.382493   6.916268   5.628582   6.389958
    26  H    6.750218   5.445683   5.351704   4.235336   6.169714
    27  H    3.881709   3.416801   4.570377   4.709268   7.816793
    28  H    2.027954   3.244417   4.318333   5.450904   7.815799
                   21         22         23         24         25
    21  H    0.000000
    22  H    1.781521   0.000000
    23  H    3.989842   2.737037   0.000000
    24  H    6.250728   5.068617   2.465323   0.000000
    25  H    7.197623   6.386458   4.279914   2.446567   0.000000
    26  H    6.445733   6.166849   4.987893   4.282885   2.485364
    27  H    7.006586   7.816342   8.323827   8.810488   7.500163
    28  H    6.377221   7.817597   9.503842  10.948836  10.477603
                   26         27         28
    26  H    0.000000
    27  H    5.033507   0.000000
    28  H    8.314137   4.303622   0.000000
 Stoichiometry    C14H9ClN4
 Framework group  C1[X(C14H9ClN4)]
 Deg. of freedom    78
 Full point group                 C1      NOp   1
 Largest Abelian subgroup         C1      NOp   1
 Largest concise Abelian subgroup C1      NOp   1
                         Standard orientation:                         
 ---------------------------------------------------------------------
 Center     Atomic      Atomic             Coordinates (Angstroms)
 Number     Number       Type             X           Y           Z
 ---------------------------------------------------------------------
      1          6           0        2.535395    2.781449    0.001219
      2          7           0        2.139630    1.400540   -0.000784
      3          6           0        2.981573    0.303637   -0.000198
      4          6           0        4.365980    0.267099   -0.000501
      5          6           0        4.977436   -0.975312   -0.000276
      6          6           0        4.237119   -2.154397    0.000149
      7          6           0        2.855272   -2.126894    0.000358
      8          6           0        2.222686   -0.891655    0.000152
      9          6           0        0.845864   -0.487266    0.000057
     10          7           0       -0.268723   -1.167687    0.000109
     11          6           0       -1.396544   -0.420538    0.000003
     12          6           0       -2.648178   -1.063689    0.000102
     13          6           0       -3.775990   -0.285498    0.000003
     14         17           0       -5.347042   -0.998772    0.000108
     15          6           0       -3.652350    1.118931   -0.000152
     16          7           0       -2.507999    1.735817   -0.000239
     17          6           0       -1.374485    1.013948   -0.000213
     18          7           0       -0.217766    1.705879   -0.000440
     19          6           0        0.858552    0.960774   -0.000272
     20          1           0        3.124680    3.012677   -0.888663
     21          1           0        1.627278    3.381141    0.003386
     22          1           0        3.126798    3.009386    0.890546
     23          1           0        4.950839    1.173708   -0.000819
     24          1           0        6.055914   -1.030067   -0.000506
     25          1           0        4.754357   -3.101693    0.000260
     26          1           0        2.269957   -3.032472    0.000715
     27          1           0       -2.684139   -2.141894    0.000312
     28          1           0       -4.535940    1.742948   -0.000182
 ---------------------------------------------------------------------
 Rotational constants (GHZ):           0.9938302           0.1770530           0.1504229
 Leave Link  202 at Mon Jan 19 00:00:06 2026, MaxMem=  8053063680 cpu:               0.1 elap:               0.1
 (Enter /appl/Gaussian16/AVX_revB01/g16/l301.exe)
 Standard basis: 6-31G(d) (6D, 7F)
 Ernie: Thresh=  0.10000D-02 Tol=  0.10000D-05 Strict=F.
 There are   307 symmetry adapted cartesian basis functions of A   symmetry.
 There are   307 symmetry adapted basis functions of A   symmetry.
   307 basis functions,   592 primitive gaussians,   307 cartesian basis functions
    69 alpha electrons       69 beta electrons
       nuclear repulsion energy      1403.7409543752 Hartrees.
 IExCor=  402 DFT=T Ex+Corr=B3LYP ExCW=0 ScaHFX=  0.200000
 ScaDFX=  0.800000  0.720000  1.000000  0.810000 ScalE2=  1.000000  1.000000
 IRadAn=      5 IRanWt=     -1 IRanGd=            0 ICorTp=0 IEmpDi=  4
 NAtoms=   28 NActive=   28 NUniq=   28 SFac= 1.00D+00 NAtFMM=   60 NAOKFM=F Big=F
 Integral buffers will be    131072 words long.
 Raffenetti 2 integral format.
 Two-electron integral symmetry is turned on.
 Leave Link  301 at Mon Jan 19 00:00:06 2026, MaxMem=  8053063680 cpu:               0.7 elap:               0.1
 (Enter /appl/Gaussian16/AVX_revB01/g16/l302.exe)
 NPDir=0 NMtPBC=     1 NCelOv=     1 NCel=       1 NClECP=     1 NCelD=      1
         NCelK=      1 NCelE2=     1 NClLst=     1 CellRange=     0.0.
 One-electron integrals computed using PRISM.
 One-electron integral symmetry used in STVInt
 NBasis=   307 RedAO= T EigKep=  3.07D-04  NBF=   307
 NBsUse=   307 1.00D-06 EigRej= -1.00D+00 NBFU=   307
 Precomputing XC quadrature grid using
 IXCGrd= 4 IRadAn=           5 IRanWt=          -1 IRanGd=           0 AccXCQ= 0.00D+00.
 Generated NRdTot=       0 NPtTot=           0 NUsed=           0 NTot=          32
 NSgBfM=   304   304   304   304   304 MxSgAt=    28 MxSgA2=    28.
 Leave Link  302 at Mon Jan 19 00:00:06 2026, MaxMem=  8053063680 cpu:               3.6 elap:               0.2
 (Enter /appl/Gaussian16/AVX_revB01/g16/l303.exe)
 DipDrv:  MaxL=1.
 Leave Link  303 at Mon Jan 19 00:00:07 2026, MaxMem=  8053063680 cpu:               0.6 elap:               0.1
 (Enter /appl/Gaussian16/AVX_revB01/g16/l401.exe)
 ExpMin= 1.43D-01 ExpMax= 2.52D+04 ExpMxC= 3.78D+03 IAcc=3 IRadAn=         5 AccDes= 0.00D+00
 Harris functional with IExCor=  402 and IRadAn=       5 diagonalized for initial guess.
 HarFok:  IExCor=  402 AccDes= 0.00D+00 IRadAn=         5 IDoV= 1 UseB2=F ITyADJ=14
 ICtDFT=  3500011 ScaDFX=  1.000000  1.000000  1.000000  1.000000
 FoFCou: FMM=F IPFlag=           0 FMFlag=      100000 FMFlg1=           0
         NFxFlg=           0 DoJE=T BraDBF=F KetDBF=T FulRan=T
         wScrn=  0.000000 ICntrl=       500 IOpCl=  0 I1Cent=   200000004 NGrid=           0
         NMat0=    1 NMatS0=      1 NMatT0=    0 NMatD0=    1 NMtDS0=    0 NMtDT0=    0
 Petite list used in FoFCou.
 Harris En= -1217.99071136479    
 JPrj=0 DoOrth=F DoCkMO=F.
 Leave Link  401 at Mon Jan 19 00:00:08 2026, MaxMem=  8053063680 cpu:              13.6 elap:               0.9
 (Enter /appl/Gaussian16/AVX_revB01/g16/l502.exe)
 Integral symmetry usage will be decided dynamically.
 Closed shell SCF:
 Using DIIS extrapolation, IDIIS=  1040.
 NGot=  8053063680 LenX=  8052866992 LenY=  8052772302
 Requested convergence on RMS density matrix=1.00D-08 within  32 cycles.
 Requested convergence on MAX density matrix=1.00D-06.
 Requested convergence on             energy=1.00D-06.
 No special actions if energy rises.
 Fock matrices will be formed incrementally for  20 cycles.
 Integral accuracy reduced to 1.0D-05 until final iterations.

 Cycle   1  Pass 0  IDiag  1:
 FoFJK:  IHMeth= 1 ICntrl=       0 DoSepK=F KAlg= 0 I1Cent=           0 FoldK=F
 IRaf= 800000000 NMat=       1 IRICut=       1 DoRegI=T DoRafI=F ISym2E= 0 IDoP0=0 IntGTp=1.
 FoFCou: FMM=F IPFlag=           0 FMFlag=      100000 FMFlg1=           0
         NFxFlg=           0 DoJE=F BraDBF=F KetDBF=F FulRan=T
         wScrn=  0.000000 ICntrl=         0 IOpCl=  0 I1Cent=           0 NGrid=           0
         NMat0=    1 NMatS0=      1 NMatT0=    0 NMatD0=    1 NMtDS0=    0 NMtDT0=    0
 Symmetry not used in FoFCou.
 E= -1217.80566999840    
 DIIS: error= 3.87D-02 at cycle   1 NSaved=   1.
 NSaved= 1 IEnMin= 1 EnMin= -1217.80566999840     IErMin= 1 ErrMin= 3.87D-02
 ErrMax= 3.87D-02  0.00D+00 EMaxC= 1.00D-01 BMatC= 3.30D-01 BMatP= 3.30D-01
 IDIUse=3 WtCom= 6.13D-01 WtEn= 3.87D-01
 Coeff-Com:  0.100D+01
 Coeff-En:   0.100D+01
 Coeff:      0.100D+01
 Gap=     0.253 Goal=   None    Shift=    0.000
 GapD=    0.253 DampG=1.000 DampE=0.500 DampFc=0.5000 IDamp=-1.
 Damping current iteration by 5.00D-01
 RMSDP=5.21D-03 MaxDP=1.56D-01              OVMax= 2.23D-01

 Cycle   2  Pass 0  IDiag  1:
 RMSU=  2.54D-03    CP:  9.74D-01
 E= -1217.94546099700     Delta-E=       -0.139790998595 Rises=F Damp=T
 DIIS: error= 8.40D-03 at cycle   2 NSaved=   2.
 NSaved= 2 IEnMin= 2 EnMin= -1217.94546099700     IErMin= 2 ErrMin= 8.40D-03
 ErrMax= 8.40D-03  0.00D+00 EMaxC= 1.00D-01 BMatC= 3.31D-02 BMatP= 3.30D-01
 IDIUse=3 WtCom= 9.16D-01 WtEn= 8.40D-02
 Coeff-Com:  0.725D-01 0.928D+00
 Coeff-En:   0.137D+00 0.863D+00
 Coeff:      0.779D-01 0.922D+00
 Gap=     0.159 Goal=   None    Shift=    0.000
 RMSDP=1.71D-03 MaxDP=6.44D-02 DE=-1.40D-01 OVMax= 1.69D-01

 Cycle   3  Pass 0  IDiag  1:
 RMSU=  1.65D-03    CP:  9.57D-01  9.30D-01
 E= -1218.09951099436     Delta-E=       -0.154049997360 Rises=F Damp=F
 DIIS: error= 9.52D-03 at cycle   3 NSaved=   3.
 NSaved= 3 IEnMin= 3 EnMin= -1218.09951099436     IErMin= 2 ErrMin= 8.40D-03
 ErrMax= 9.52D-03  0.00D+00 EMaxC= 1.00D-01 BMatC= 3.73D-02 BMatP= 3.31D-02
 IDIUse=3 WtCom= 9.30D-02 WtEn= 9.07D-01
 Coeff-Com: -0.348D-01 0.531D+00 0.504D+00
 Coeff-En:   0.000D+00 0.000D+00 0.100D+01
 Coeff:     -0.324D-02 0.493D-01 0.954D+00
 Gap=     0.166 Goal=   None    Shift=    0.000
 RMSDP=2.11D-03 MaxDP=8.00D-02 DE=-1.54D-01 OVMax= 1.49D-01

 Cycle   4  Pass 0  IDiag  1:
 RMSU=  1.52D-03    CP:  9.58D-01  1.23D+00  2.40D-01
 E= -1217.97822604702     Delta-E=        0.121284947341 Rises=F Damp=F
 DIIS: error= 2.50D-02 at cycle   4 NSaved=   4.
 NSaved= 4 IEnMin= 3 EnMin= -1218.09951099436     IErMin= 2 ErrMin= 8.40D-03
 ErrMax= 2.50D-02  0.00D+00 EMaxC= 1.00D-01 BMatC= 1.56D-01 BMatP= 3.31D-02
 IDIUse=2 WtCom= 0.00D+00 WtEn= 1.00D+00
 Coeff-En:   0.000D+00 0.000D+00 0.750D+00 0.250D+00
 Coeff:      0.000D+00 0.000D+00 0.750D+00 0.250D+00
 Gap=     0.159 Goal=   None    Shift=    0.000
 RMSDP=1.10D-03 MaxDP=4.20D-02 DE= 1.21D-01 OVMax= 9.24D-02

 Cycle   5  Pass 0  IDiag  1:
 RMSU=  2.02D-04    CP:  9.59D-01  1.06D+00  6.16D-01  4.89D-01
 E= -1218.12813375927     Delta-E=       -0.149907712254 Rises=F Damp=F
 DIIS: error= 5.40D-03 at cycle   5 NSaved=   5.
 NSaved= 5 IEnMin= 5 EnMin= -1218.12813375927     IErMin= 5 ErrMin= 5.40D-03
 ErrMax= 5.40D-03  0.00D+00 EMaxC= 1.00D-01 BMatC= 9.53D-03 BMatP= 3.31D-02
 IDIUse=3 WtCom= 9.46D-01 WtEn= 5.40D-02
 Coeff-Com:  0.715D-02-0.411D-02 0.330D+00 0.942D-03 0.666D+00
 Coeff-En:   0.000D+00 0.000D+00 0.254D+00 0.000D+00 0.746D+00
 Coeff:      0.676D-02-0.389D-02 0.326D+00 0.891D-03 0.671D+00
 Gap=     0.138 Goal=   None    Shift=    0.000
 RMSDP=3.75D-04 MaxDP=1.34D-02 DE=-1.50D-01 OVMax= 2.86D-02

 Cycle   6  Pass 0  IDiag  1:
 RMSU=  7.75D-05    CP:  9.58D-01  1.01D+00  7.46D-01  3.20D-01  6.63D-01
 E= -1218.13772202537     Delta-E=       -0.009588266102 Rises=F Damp=F
 DIIS: error= 5.03D-04 at cycle   6 NSaved=   6.
 NSaved= 6 IEnMin= 6 EnMin= -1218.13772202537     IErMin= 6 ErrMin= 5.03D-04
 ErrMax= 5.03D-04  0.00D+00 EMaxC= 1.00D-01 BMatC= 9.59D-05 BMatP= 9.53D-03
 IDIUse=3 WtCom= 9.95D-01 WtEn= 5.03D-03
 Coeff-Com:  0.226D-02-0.600D-02 0.112D+00-0.358D-01 0.387D+00 0.540D+00
 Coeff-En:   0.000D+00 0.000D+00 0.000D+00 0.000D+00 0.000D+00 0.100D+01
 Coeff:      0.225D-02-0.597D-02 0.111D+00-0.356D-01 0.385D+00 0.543D+00
 Gap=     0.137 Goal=   None    Shift=    0.000
 RMSDP=4.15D-05 MaxDP=1.56D-03 DE=-9.59D-03 OVMax= 2.98D-03

 Cycle   7  Pass 0  IDiag  1:
 RMSU=  2.07D-05    CP:  9.58D-01  1.01D+00  7.47D-01  3.26D-01  7.39D-01
                    CP:  5.98D-01
 E= -1218.13780823657     Delta-E=       -0.000086211197 Rises=F Damp=F
 DIIS: error= 1.21D-04 at cycle   7 NSaved=   7.
 NSaved= 7 IEnMin= 7 EnMin= -1218.13780823657     IErMin= 7 ErrMin= 1.21D-04
 ErrMax= 1.21D-04  0.00D+00 EMaxC= 1.00D-01 BMatC= 6.11D-06 BMatP= 9.59D-05
 IDIUse=3 WtCom= 9.99D-01 WtEn= 1.21D-03
 Coeff-Com:  0.883D-03-0.275D-02 0.493D-01-0.221D-01 0.195D+00 0.316D+00
 Coeff-Com:  0.463D+00
 Coeff-En:   0.000D+00 0.000D+00 0.000D+00 0.000D+00 0.000D+00 0.000D+00
 Coeff-En:   0.100D+01
 Coeff:      0.882D-03-0.274D-02 0.492D-01-0.221D-01 0.195D+00 0.316D+00
 Coeff:      0.464D+00
 Gap=     0.137 Goal=   None    Shift=    0.000
 RMSDP=1.25D-05 MaxDP=6.48D-04 DE=-8.62D-05 OVMax= 1.03D-03

 Cycle   8  Pass 0  IDiag  1:
 RMSU=  6.81D-06    CP:  9.58D-01  1.01D+00  7.47D-01  3.27D-01  7.51D-01
                    CP:  6.19D-01  5.20D-01
 E= -1218.13781363678     Delta-E=       -0.000005400207 Rises=F Damp=F
 DIIS: error= 5.70D-05 at cycle   8 NSaved=   8.
 NSaved= 8 IEnMin= 8 EnMin= -1218.13781363678     IErMin= 8 ErrMin= 5.70D-05
 ErrMax= 5.70D-05  0.00D+00 EMaxC= 1.00D-01 BMatC= 6.86D-07 BMatP= 6.11D-06
 IDIUse=1 WtCom= 1.00D+00 WtEn= 0.00D+00
 Coeff-Com:  0.259D-03-0.895D-03 0.148D-01-0.869D-02 0.656D-01 0.115D+00
 Coeff-Com:  0.280D+00 0.534D+00
 Coeff:      0.259D-03-0.895D-03 0.148D-01-0.869D-02 0.656D-01 0.115D+00
 Coeff:      0.280D+00 0.534D+00
 Gap=     0.137 Goal=   None    Shift=    0.000
 RMSDP=4.13D-06 MaxDP=1.92D-04 DE=-5.40D-06 OVMax= 3.80D-04

 Initial convergence to 1.0D-05 achieved.  Increase integral accuracy.
 Cycle   9  Pass 1  IDiag  1:
 E= -1218.13778641062     Delta-E=        0.000027226159 Rises=F Damp=F
 DIIS: error= 6.92D-05 at cycle   1 NSaved=   1.
 NSaved= 1 IEnMin= 1 EnMin= -1218.13778641062     IErMin= 1 ErrMin= 6.92D-05
 ErrMax= 6.92D-05  0.00D+00 EMaxC= 1.00D-01 BMatC= 7.06D-07 BMatP= 7.06D-07
 IDIUse=1 WtCom= 1.00D+00 WtEn= 0.00D+00
 Coeff-Com:  0.100D+01
 Coeff:      0.100D+01
 Gap=     0.137 Goal=   None    Shift=    0.000
 RMSDP=4.13D-06 MaxDP=1.92D-04 DE= 2.72D-05 OVMax= 2.64D-04

 Cycle  10  Pass 1  IDiag  1:
 RMSU=  5.70D-05    CP:  1.00D+00
 E= -1218.13778675655     Delta-E=       -0.000000345937 Rises=F Damp=F
 DIIS: error= 3.82D-05 at cycle   2 NSaved=   2.
 NSaved= 2 IEnMin= 2 EnMin= -1218.13778675655     IErMin= 2 ErrMin= 3.82D-05
 ErrMax= 3.82D-05  0.00D+00 EMaxC= 1.00D-01 BMatC= 2.77D-07 BMatP= 7.06D-07
 IDIUse=1 WtCom= 1.00D+00 WtEn= 0.00D+00
 Coeff-Com:  0.325D+00 0.675D+00
 Coeff:      0.325D+00 0.675D+00
 Gap=     0.137 Goal=   None    Shift=    0.000
 RMSDP=4.72D-06 MaxDP=2.21D-04 DE=-3.46D-07 OVMax= 4.21D-04

 Cycle  11  Pass 1  IDiag  1:
 RMSU=  4.72D-06    CP:  1.00D+00  1.00D+00
 E= -1218.13778659219     Delta-E=        0.000000164362 Rises=F Damp=F
 DIIS: error= 4.92D-05 at cycle   3 NSaved=   3.
 NSaved= 3 IEnMin= 2 EnMin= -1218.13778675655     IErMin= 2 ErrMin= 3.82D-05
 ErrMax= 4.92D-05  0.00D+00 EMaxC= 1.00D-01 BMatC= 4.30D-07 BMatP= 2.77D-07
 IDIUse=1 WtCom= 1.00D+00 WtEn= 0.00D+00
 Coeff-Com:  0.414D-02 0.554D+00 0.442D+00
 Coeff:      0.414D-02 0.554D+00 0.442D+00
 Gap=     0.137 Goal=   None    Shift=    0.000
 RMSDP=2.77D-06 MaxDP=1.38D-04 DE= 1.64D-07 OVMax= 2.52D-04

 Cycle  12  Pass 1  IDiag  1:
 RMSU=  5.24D-07    CP:  1.00D+00  1.01D+00  4.34D-01
 E= -1218.13778705072     Delta-E=       -0.000000458525 Rises=F Damp=F
 DIIS: error= 3.72D-06 at cycle   4 NSaved=   4.
 NSaved= 4 IEnMin= 4 EnMin= -1218.13778705072     IErMin= 4 ErrMin= 3.72D-06
 ErrMax= 3.72D-06  0.00D+00 EMaxC= 1.00D-01 BMatC= 5.74D-09 BMatP= 2.77D-07
 IDIUse=1 WtCom= 1.00D+00 WtEn= 0.00D+00
 Coeff-Com: -0.336D-02 0.325D+00 0.268D+00 0.410D+00
 Coeff:     -0.336D-02 0.325D+00 0.268D+00 0.410D+00
 Gap=     0.137 Goal=   None    Shift=    0.000
 RMSDP=3.00D-07 MaxDP=1.60D-05 DE=-4.59D-07 OVMax= 2.25D-05

 Cycle  13  Pass 1  IDiag  1:
 RMSU=  1.37D-07    CP:  1.00D+00  1.01D+00  4.44D-01  5.02D-01
 E= -1218.13778705607     Delta-E=       -0.000000005355 Rises=F Damp=F
 DIIS: error= 6.26D-07 at cycle   5 NSaved=   5.
 NSaved= 5 IEnMin= 5 EnMin= -1218.13778705607     IErMin= 5 ErrMin= 6.26D-07
 ErrMax= 6.26D-07  0.00D+00 EMaxC= 1.00D-01 BMatC= 2.03D-10 BMatP= 5.74D-09
 IDIUse=1 WtCom= 1.00D+00 WtEn= 0.00D+00
 Coeff-Com: -0.217D-02 0.173D+00 0.143D+00 0.248D+00 0.438D+00
 Coeff:     -0.217D-02 0.173D+00 0.143D+00 0.248D+00 0.438D+00
 Gap=     0.137 Goal=   None    Shift=    0.000
 RMSDP=6.24D-08 MaxDP=3.12D-06 DE=-5.35D-09 OVMax= 4.71D-06

 Cycle  14  Pass 1  IDiag  1:
 RMSU=  4.40D-08    CP:  1.00D+00  1.01D+00  4.45D-01  5.22D-01  6.88D-01
 E= -1218.13778705626     Delta-E=       -0.000000000193 Rises=F Damp=F
 DIIS: error= 1.47D-07 at cycle   6 NSaved=   6.
 NSaved= 6 IEnMin= 6 EnMin= -1218.13778705626     IErMin= 6 ErrMin= 1.47D-07
 ErrMax= 1.47D-07  0.00D+00 EMaxC= 1.00D-01 BMatC= 9.70D-12 BMatP= 2.03D-10
 IDIUse=1 WtCom= 1.00D+00 WtEn= 0.00D+00
 Coeff-Com: -0.915D-03 0.682D-01 0.564D-01 0.103D+00 0.234D+00 0.540D+00
 Coeff:     -0.915D-03 0.682D-01 0.564D-01 0.103D+00 0.234D+00 0.540D+00
 Gap=     0.137 Goal=   None    Shift=    0.000
 RMSDP=1.52D-08 MaxDP=4.96D-07 DE=-1.93D-10 OVMax= 1.05D-06

 Cycle  15  Pass 1  IDiag  1:
 RMSU=  1.36D-08    CP:  1.00D+00  1.01D+00  4.45D-01  5.19D-01  7.07D-01
                    CP:  8.70D-01
 E= -1218.13778705627     Delta-E=       -0.000000000010 Rises=F Damp=F
 DIIS: error= 6.17D-08 at cycle   7 NSaved=   7.
 NSaved= 7 IEnMin= 7 EnMin= -1218.13778705627     IErMin= 7 ErrMin= 6.17D-08
 ErrMax= 6.17D-08  0.00D+00 EMaxC= 1.00D-01 BMatC= 1.52D-12 BMatP= 9.70D-12
 IDIUse=1 WtCom= 1.00D+00 WtEn= 0.00D+00
 Coeff-Com: -0.120D-03 0.741D-02 0.579D-02 0.135D-01 0.488D-01 0.301D+00
 Coeff-Com:  0.624D+00
 Coeff:     -0.120D-03 0.741D-02 0.579D-02 0.135D-01 0.488D-01 0.301D+00
 Coeff:      0.624D+00
 Gap=     0.137 Goal=   None    Shift=    0.000
 RMSDP=6.32D-09 MaxDP=2.29D-07 DE=-1.00D-11 OVMax= 5.43D-07

 SCF Done:  E(RB3LYP) =  -1218.13778706     A.U. after   15 cycles
            NFock= 15  Conv=0.63D-08     -V/T= 2.0065
 KE= 1.210292880213D+03 PE=-5.659682554909D+03 EE= 1.827510933264D+03
 Leave Link  502 at Mon Jan 19 00:00:24 2026, MaxMem=  8053063680 cpu:             252.3 elap:              15.8
 (Enter /appl/Gaussian16/AVX_revB01/g16/l508.exe)
 QCSCF skips out because SCF is already converged.
 Leave Link  508 at Mon Jan 19 00:00:24 2026, MaxMem=  8053063680 cpu:               0.0 elap:               0.1
 (Enter /appl/Gaussian16/AVX_revB01/g16/l601.exe)
 Copying SCF densities to generalized density rwf, IOpCl= 0 IROHF=0.

 **********************************************************************

            Population analysis using the SCF Density.

 **********************************************************************

 Orbital symmetries:
       Occupied  (A) (A) (A) (A) (A) (A) (A) (A) (A) (A) (A) (A)
                 (A) (A) (A) (A) (A) (A) (A) (A) (A) (A) (A) (A)
                 (A) (A) (A) (A) (A) (A) (A) (A) (A) (A) (A) (A)
                 (A) (A) (A) (A) (A) (A) (A) (A) (A) (A) (A) (A)
                 (A) (A) (A) (A) (A) (A) (A) (A) (A) (A) (A) (A)
                 (A) (A) (A) (A) (A) (A) (A) (A) (A)
       Virtual   (A) (A) (A) (A) (A) (A) (A) (A) (A) (A) (A) (A)
                 (A) (A) (A) (A) (A) (A) (A) (A) (A) (A) (A) (A)
                 (A) (A) (A) (A) (A) (A) (A) (A) (A) (A) (A) (A)
                 (A) (A) (A) (A) (A) (A) (A) (A) (A) (A) (A) (A)
                 (A) (A) (A) (A) (A) (A) (A) (A) (A) (A) (A) (A)
                 (A) (A) (A) (A) (A) (A) (A) (A) (A) (A) (A) (A)
                 (A) (A) (A) (A) (A) (A) (A) (A) (A) (A) (A) (A)
                 (A) (A) (A) (A) (A) (A) (A) (A) (A) (A) (A) (A)
                 (A) (A) (A) (A) (A) (A) (A) (A) (A) (A) (A) (A)
                 (A) (A) (A) (A) (A) (A) (A) (A) (A) (A) (A) (A)
                 (A) (A) (A) (A) (A) (A) (A) (A) (A) (A) (A) (A)
                 (A) (A) (A) (A) (A) (A) (A) (A) (A) (A) (A) (A)
                 (A) (A) (A) (A) (A) (A) (A) (A) (A) (A) (A) (A)
                 (A) (A) (A) (A) (A) (A) (A) (A) (A) (A) (A) (A)
                 (A) (A) (A) (A) (A) (A) (A) (A) (A) (A) (A) (A)
                 (A) (A) (A) (A) (A) (A) (A) (A) (A) (A) (A) (A)
                 (A) (A) (A) (A) (A) (A) (A) (A) (A) (A) (A) (A)
                 (A) (A) (A) (A) (A) (A) (A) (A) (A) (A) (A) (A)
                 (A) (A) (A) (A) (A) (A) (A) (A) (A) (A) (A) (A)
                 (A) (A) (A) (A) (A) (A) (A) (A) (A) (A)
 The electronic state is 1-A.
 Alpha  occ. eigenvalues -- -101.55548 -14.39728 -14.35098 -14.34233 -14.33430
 Alpha  occ. eigenvalues --  -10.27012 -10.25965 -10.25690 -10.24305 -10.24077
 Alpha  occ. eigenvalues --  -10.23787 -10.23673 -10.23550 -10.21523 -10.20507
 Alpha  occ. eigenvalues --  -10.20407 -10.20379 -10.20256 -10.19489  -9.47213
 Alpha  occ. eigenvalues --   -7.23608  -7.22638  -7.22602  -1.03337  -0.98835
 Alpha  occ. eigenvalues --   -0.94873  -0.92149  -0.88197  -0.86602  -0.81793
 Alpha  occ. eigenvalues --   -0.78609  -0.76948  -0.75096  -0.72272  -0.68492
 Alpha  occ. eigenvalues --   -0.65484  -0.63754  -0.61511  -0.60033  -0.57232
 Alpha  occ. eigenvalues --   -0.55523  -0.52750  -0.51926  -0.49450  -0.49101
 Alpha  occ. eigenvalues --   -0.48933  -0.47206  -0.45604  -0.45076  -0.45050
 Alpha  occ. eigenvalues --   -0.44131  -0.42249  -0.41678  -0.41547  -0.40313
 Alpha  occ. eigenvalues --   -0.38383  -0.37822  -0.36741  -0.35969  -0.35230
 Alpha  occ. eigenvalues --   -0.32558  -0.31864  -0.31096  -0.29423  -0.28132
 Alpha  occ. eigenvalues --   -0.26386  -0.24479  -0.23814  -0.22120
 Alpha virt. eigenvalues --   -0.08409  -0.03013  -0.00854   0.00359   0.01758
 Alpha virt. eigenvalues --    0.03733   0.08556   0.09335   0.10208   0.13807
 Alpha virt. eigenvalues --    0.14134   0.14898   0.14906   0.15292   0.15988
 Alpha virt. eigenvalues --    0.17343   0.17353   0.18215   0.19430   0.21023
 Alpha virt. eigenvalues --    0.22035   0.23794   0.24955   0.26216   0.27190
 Alpha virt. eigenvalues --    0.28859   0.29610   0.31900   0.32274   0.35021
 Alpha virt. eigenvalues --    0.35403   0.37011   0.37810   0.40059   0.40262
 Alpha virt. eigenvalues --    0.41603   0.41995   0.43673   0.46267   0.46961
 Alpha virt. eigenvalues --    0.47920   0.48455   0.49641   0.50777   0.50958
 Alpha virt. eigenvalues --    0.52103   0.54072   0.54587   0.54886   0.54935
 Alpha virt. eigenvalues --    0.55563   0.56775   0.58352   0.58486   0.58682
 Alpha virt. eigenvalues --    0.59202   0.59584   0.60132   0.60608   0.62782
 Alpha virt. eigenvalues --    0.63167   0.63526   0.64985   0.65357   0.65457
 Alpha virt. eigenvalues --    0.66552   0.68388   0.69382   0.70019   0.72082
 Alpha virt. eigenvalues --    0.73329   0.73798   0.76219   0.78801   0.79220
 Alpha virt. eigenvalues --    0.79899   0.81154   0.81543   0.81683   0.82972
 Alpha virt. eigenvalues --    0.83420   0.83661   0.84195   0.84873   0.86203
 Alpha virt. eigenvalues --    0.86431   0.87628   0.88508   0.89218   0.90482
 Alpha virt. eigenvalues --    0.91117   0.92303   0.94340   0.94387   0.94705
 Alpha virt. eigenvalues --    0.95083   0.95287   0.96691   0.97088   0.99135
 Alpha virt. eigenvalues --    1.01139   1.02039   1.04768   1.08327   1.10352
 Alpha virt. eigenvalues --    1.10674   1.13546   1.15412   1.17331   1.17971
 Alpha virt. eigenvalues --    1.19511   1.20357   1.23692   1.24069   1.25318
 Alpha virt. eigenvalues --    1.26973   1.30142   1.30833   1.31209   1.32024
 Alpha virt. eigenvalues --    1.33560   1.34476   1.37420   1.38761   1.39821
 Alpha virt. eigenvalues --    1.41987   1.43671   1.44126   1.46609   1.47087
 Alpha virt. eigenvalues --    1.48022   1.48506   1.49308   1.50077   1.52102
 Alpha virt. eigenvalues --    1.54409   1.59333   1.63902   1.65444   1.68237
 Alpha virt. eigenvalues --    1.70380   1.72846   1.75085   1.76723   1.77744
 Alpha virt. eigenvalues --    1.79713   1.80293   1.81102   1.83351   1.85862
 Alpha virt. eigenvalues --    1.85964   1.86882   1.89043   1.90206   1.92568
 Alpha virt. eigenvalues --    1.94472   1.95885   1.96776   1.98131   2.01001
 Alpha virt. eigenvalues --    2.02339   2.03156   2.04609   2.05929   2.10321
 Alpha virt. eigenvalues --    2.11312   2.12974   2.13668   2.14990   2.17201
 Alpha virt. eigenvalues --    2.19424   2.19437   2.21595   2.22172   2.22634
 Alpha virt. eigenvalues --    2.25017   2.26904   2.27244   2.28107   2.32421
 Alpha virt. eigenvalues --    2.33990   2.34454   2.36154   2.38167   2.38512
 Alpha virt. eigenvalues --    2.41606   2.43835   2.45270   2.49296   2.53210
 Alpha virt. eigenvalues --    2.53396   2.53696   2.60834   2.60930   2.61814
 Alpha virt. eigenvalues --    2.63978   2.65628   2.66497   2.66647   2.69086
 Alpha virt. eigenvalues --    2.69440   2.71255   2.74813   2.78003   2.78201
 Alpha virt. eigenvalues --    2.81204   2.82609   2.84634   2.87365   2.89968
 Alpha virt. eigenvalues --    2.98071   3.01302   3.05485   3.09113   3.25784
 Alpha virt. eigenvalues --    3.29023   3.40999   3.47686   3.57066   4.04030
 Alpha virt. eigenvalues --    4.04074   4.07027   4.08885   4.11942   4.14979
 Alpha virt. eigenvalues --    4.18322   4.20266   4.25707   4.29031   4.31856
 Alpha virt. eigenvalues --    4.38235   4.42851   4.45626   4.54522   4.65491
 Alpha virt. eigenvalues --    4.69603   4.79256   4.88017
          Condensed to atoms (all electrons):
               1          2          3          4          5          6
     1  C    5.004586   0.292320  -0.045396  -0.003381  -0.000152   0.000011
     2  N    0.292320   7.145506   0.277755  -0.099131   0.006062  -0.000317
     3  C   -0.045396   0.277755   4.708154   0.484180   0.004667  -0.044171
     4  C   -0.003381  -0.099131   0.484180   5.088539   0.514611  -0.024892
     5  C   -0.000152   0.006062   0.004667   0.514611   4.853733   0.531400
     6  C    0.000011  -0.000317  -0.044171  -0.024892   0.531400   4.908224
     7  C   -0.000070   0.010307  -0.071224  -0.058281  -0.023177   0.484599
     8  C    0.004990  -0.031266   0.451169  -0.055904  -0.041076   0.005552
     9  C    0.007117  -0.085746   0.028518   0.016942  -0.000092   0.010227
    10  N   -0.000109   0.006772   0.008874  -0.000133   0.000005   0.000190
    11  C   -0.000024   0.001213   0.000129   0.000008   0.000000   0.000005
    12  C    0.000000   0.000012   0.000008  -0.000000  -0.000000  -0.000000
    13  C   -0.000000   0.000000  -0.000000   0.000000   0.000000  -0.000000
    14  Cl  -0.000000  -0.000000   0.000000  -0.000000  -0.000000  -0.000000
    15  C    0.000000   0.000000  -0.000000   0.000000   0.000000  -0.000000
    16  N    0.000006  -0.000045  -0.000002  -0.000000   0.000000  -0.000000
    17  C    0.000104   0.002124  -0.000297  -0.000003   0.000000  -0.000000
    18  N   -0.007907  -0.082384  -0.000399  -0.000217   0.000002   0.000000
    19  C   -0.038810   0.286551  -0.100066   0.002242  -0.000115  -0.000458
    20  H    0.375659  -0.041822  -0.000641   0.002727   0.000001  -0.000002
    21  H    0.375529  -0.033890   0.002017   0.000075   0.000001  -0.000000
    22  H    0.375600  -0.041831  -0.000637   0.002746   0.000000  -0.000002
    23  H    0.004820  -0.008758  -0.036284   0.351081  -0.042020   0.004402
    24  H   -0.000001  -0.000116   0.002840  -0.039953   0.360428  -0.040062
    25  H   -0.000000   0.000005   0.001165   0.004703  -0.040581   0.360302
    26  H    0.000003  -0.000102   0.005026   0.000382   0.004566  -0.046855
    27  H    0.000000  -0.000000  -0.000000  -0.000000   0.000000   0.000000
    28  H    0.000000  -0.000000  -0.000000  -0.000000   0.000000  -0.000000
               7          8          9         10         11         12
     1  C   -0.000070   0.004990   0.007117  -0.000109  -0.000024   0.000000
     2  N    0.010307  -0.031266  -0.085746   0.006772   0.001213   0.000012
     3  C   -0.071224   0.451169   0.028518   0.008874   0.000129   0.000008
     4  C   -0.058281  -0.055904   0.016942  -0.000133   0.000008  -0.000000
     5  C   -0.023177  -0.041076  -0.000092   0.000005   0.000000  -0.000000
     6  C    0.484599   0.005552   0.010227   0.000190   0.000005  -0.000000
     7  C    5.111096   0.496251  -0.114392  -0.005704  -0.000058  -0.000003
     8  C    0.496251   4.972777   0.216052  -0.092287   0.000081  -0.000692
     9  C   -0.114392   0.216052   5.111032   0.468928  -0.046109  -0.001116
    10  N   -0.005704  -0.092287   0.468928   7.050459   0.378379  -0.068935
    11  C   -0.000058   0.000081  -0.046109   0.378379   4.774603   0.451206
    12  C   -0.000003  -0.000692  -0.001116  -0.068935   0.451206   5.119881
    13  C   -0.000000   0.000006  -0.000137   0.005959  -0.001765   0.504374
    14  Cl  -0.000000  -0.000000  -0.000000  -0.000083   0.004398  -0.071046
    15  C    0.000000   0.000000   0.000129   0.000022  -0.023478  -0.046045
    16  N   -0.000000   0.000028   0.000472   0.006154  -0.069632  -0.043032
    17  C    0.000009   0.004804  -0.026853  -0.061262   0.380981  -0.070745
    18  N   -0.000088   0.009035  -0.058961  -0.019139  -0.102754   0.004311
    19  C    0.018536  -0.015116   0.266583  -0.101145  -0.009074   0.002854
    20  H   -0.000009  -0.000149  -0.000029   0.000002   0.000001  -0.000000
    21  H    0.000009  -0.000036   0.000426  -0.000015   0.000047  -0.000000
    22  H   -0.000009  -0.000148  -0.000027   0.000002   0.000001  -0.000000
    23  H    0.000565   0.004744  -0.000281   0.000001  -0.000000   0.000000
    24  H    0.004474   0.001084   0.000011  -0.000000   0.000000  -0.000000
    25  H   -0.037719   0.001677  -0.000243  -0.000001  -0.000000  -0.000000
    26  H    0.360237  -0.036412  -0.009000   0.003953  -0.000012  -0.000003
    27  H    0.000005  -0.000012   0.000669  -0.000520  -0.029798   0.351455
    28  H   -0.000000   0.000000   0.000002   0.000010   0.000535   0.002781
              13         14         15         16         17         18
     1  C   -0.000000  -0.000000   0.000000   0.000006   0.000104  -0.007907
     2  N    0.000000  -0.000000   0.000000  -0.000045   0.002124  -0.082384
     3  C   -0.000000   0.000000  -0.000000  -0.000002  -0.000297  -0.000399
     4  C    0.000000  -0.000000   0.000000  -0.000000  -0.000003  -0.000217
     5  C    0.000000  -0.000000   0.000000   0.000000   0.000000   0.000002
     6  C   -0.000000  -0.000000  -0.000000  -0.000000  -0.000000   0.000000
     7  C   -0.000000  -0.000000   0.000000  -0.000000   0.000009  -0.000088
     8  C    0.000006  -0.000000   0.000000   0.000028   0.004804   0.009035
     9  C   -0.000137  -0.000000   0.000129   0.000472  -0.026853  -0.058961
    10  N    0.005959  -0.000083   0.000022   0.006154  -0.061262  -0.019139
    11  C   -0.001765   0.004398  -0.023478  -0.069632   0.380981  -0.102754
    12  C    0.504374  -0.071046  -0.046045  -0.043032  -0.070745   0.004311
    13  C    5.121107   0.220224   0.420196  -0.017390  -0.034481   0.000274
    14  Cl   0.220224  16.894660  -0.055384   0.004302   0.000707   0.000014
    15  C    0.420196  -0.055384   4.837907   0.486195  -0.056891   0.002936
    16  N   -0.017390   0.004302   0.486195   6.853149   0.384477  -0.090426
    17  C   -0.034481   0.000707  -0.056891   0.384477   4.701359   0.404426
    18  N    0.000274   0.000014   0.002936  -0.090426   0.404426   7.043029
    19  C   -0.000012  -0.000002   0.000011  -0.001233  -0.050951   0.422302
    20  H    0.000000  -0.000000  -0.000000  -0.000000  -0.000001   0.000401
    21  H   -0.000000  -0.000000   0.000001  -0.000047   0.000103   0.017727
    22  H    0.000000  -0.000000  -0.000000  -0.000000  -0.000001   0.000401
    23  H   -0.000000   0.000000   0.000000  -0.000000  -0.000000   0.000002
    24  H    0.000000  -0.000000  -0.000000  -0.000000   0.000000  -0.000000
    25  H    0.000000   0.000000   0.000000  -0.000000  -0.000000  -0.000000
    26  H    0.000000  -0.000000   0.000000  -0.000000   0.000002   0.000000
    27  H   -0.049424  -0.002094   0.004667  -0.000627   0.005891  -0.000140
    28  H   -0.069870   0.005492   0.383072  -0.051806   0.004233  -0.000082
              19         20         21         22         23         24
     1  C   -0.038810   0.375659   0.375529   0.375600   0.004820  -0.000001
     2  N    0.286551  -0.041822  -0.033890  -0.041831  -0.008758  -0.000116
     3  C   -0.100066  -0.000641   0.002017  -0.000637  -0.036284   0.002840
     4  C    0.002242   0.002727   0.000075   0.002746   0.351081  -0.039953
     5  C   -0.000115   0.000001   0.000001   0.000000  -0.042020   0.360428
     6  C   -0.000458  -0.000002  -0.000000  -0.000002   0.004402  -0.040062
     7  C    0.018536  -0.000009   0.000009  -0.000009   0.000565   0.004474
     8  C   -0.015116  -0.000149  -0.000036  -0.000148   0.004744   0.001084
     9  C    0.266583  -0.000029   0.000426  -0.000027  -0.000281   0.000011
    10  N   -0.101145   0.000002  -0.000015   0.000002   0.000001  -0.000000
    11  C   -0.009074   0.000001   0.000047   0.000001  -0.000000   0.000000
    12  C    0.002854  -0.000000  -0.000000  -0.000000   0.000000  -0.000000
    13  C   -0.000012   0.000000  -0.000000   0.000000  -0.000000   0.000000
    14  Cl  -0.000002  -0.000000  -0.000000  -0.000000   0.000000  -0.000000
    15  C    0.000011  -0.000000   0.000001  -0.000000   0.000000  -0.000000
    16  N   -0.001233  -0.000000  -0.000047  -0.000000  -0.000000  -0.000000
    17  C   -0.050951  -0.000001   0.000103  -0.000001  -0.000000   0.000000
    18  N    0.422302   0.000401   0.017727   0.000401   0.000002  -0.000000
    19  C    4.767409   0.001018  -0.002495   0.001013  -0.000008   0.000001
    20  H    0.001018   0.554818  -0.022948  -0.041835   0.000658  -0.000000
    21  H   -0.002495  -0.022948   0.471367  -0.022893  -0.000049  -0.000000
    22  H    0.001013  -0.041835  -0.022893   0.554831   0.000668  -0.000000
    23  H   -0.000008   0.000658  -0.000049   0.000668   0.588565  -0.005454
    24  H    0.000001  -0.000000  -0.000000  -0.000000  -0.005454   0.585740
    25  H    0.000006   0.000000  -0.000000   0.000000  -0.000175  -0.005761
    26  H    0.000132  -0.000000  -0.000000  -0.000000   0.000018  -0.000177
    27  H    0.000043  -0.000000   0.000000  -0.000000   0.000000  -0.000000
    28  H   -0.000008  -0.000000  -0.000000  -0.000000  -0.000000  -0.000000
              25         26         27         28
     1  C   -0.000000   0.000003   0.000000   0.000000
     2  N    0.000005  -0.000102  -0.000000  -0.000000
     3  C    0.001165   0.005026  -0.000000  -0.000000
     4  C    0.004703   0.000382  -0.000000  -0.000000
     5  C   -0.040581   0.004566   0.000000   0.000000
     6  C    0.360302  -0.046855   0.000000  -0.000000
     7  C   -0.037719   0.360237   0.000005  -0.000000
     8  C    0.001677  -0.036412  -0.000012   0.000000
     9  C   -0.000243  -0.009000   0.000669   0.000002
    10  N   -0.000001   0.003953  -0.000520   0.000010
    11  C   -0.000000  -0.000012  -0.029798   0.000535
    12  C   -0.000000  -0.000003   0.351455   0.002781
    13  C    0.000000   0.000000  -0.049424  -0.069870
    14  Cl   0.000000  -0.000000  -0.002094   0.005492
    15  C    0.000000   0.000000   0.004667   0.383072
    16  N   -0.000000  -0.000000  -0.000627  -0.051806
    17  C   -0.000000   0.000002   0.005891   0.004233
    18  N   -0.000000   0.000000  -0.000140  -0.000082
    19  C    0.000006   0.000132   0.000043  -0.000008
    20  H    0.000000  -0.000000  -0.000000  -0.000000
    21  H   -0.000000  -0.000000   0.000000  -0.000000
    22  H    0.000000  -0.000000  -0.000000  -0.000000
    23  H   -0.000175   0.000018   0.000000  -0.000000
    24  H   -0.005761  -0.000177  -0.000000  -0.000000
    25  H    0.587521  -0.004594   0.000000   0.000000
    26  H   -0.004594   0.568389   0.000006  -0.000000
    27  H    0.000000   0.000006   0.546779  -0.000159
    28  H    0.000000  -0.000000  -0.000159   0.562148
 Mulliken charges:
               1
     1  C   -0.344896
     2  N   -0.603220
     3  C    0.324618
     4  C   -0.186338
     5  C   -0.128263
     6  C   -0.148153
     7  C   -0.175355
     8  C    0.104847
     9  C    0.215878
    10  N   -0.580380
    11  C    0.291118
    12  C   -0.135266
    13  C   -0.099061
    14  Cl  -0.001188
    15  C    0.046661
    16  N   -0.460543
    17  C    0.412266
    18  N   -0.542364
    19  C    0.550790
    20  H    0.172153
    21  H    0.215072
    22  H    0.172120
    23  H    0.137506
    24  H    0.136947
    25  H    0.133696
    26  H    0.154442
    27  H    0.173258
    28  H    0.163653
 Sum of Mulliken charges =  -0.00000
 Mulliken charges with hydrogens summed into heavy atoms:
               1
     1  C    0.214450
     2  N   -0.603220
     3  C    0.324618
     4  C   -0.048832
     5  C    0.008684
     6  C   -0.014456
     7  C   -0.020913
     8  C    0.104847
     9  C    0.215878
    10  N   -0.580380
    11  C    0.291118
    12  C    0.037991
    13  C   -0.099061
    14  Cl  -0.001188
    15  C    0.210314
    16  N   -0.460543
    17  C    0.412266
    18  N   -0.542364
    19  C    0.550790
 Electronic spatial extent (au):  <R**2>=           6550.7571
 Charge=              0.0000 electrons
 Dipole moment (field-independent basis, Debye):
    X=              4.2739    Y=              0.0146    Z=              0.0026  Tot=              4.2739
 Quadrupole moment (field-independent basis, Debye-Ang):
   XX=           -102.0259   YY=           -110.8103   ZZ=           -115.3959
   XY=              5.0073   XZ=              0.0032   YZ=              0.0059
 Traceless Quadrupole moment (field-independent basis, Debye-Ang):
   XX=              7.3848   YY=             -1.3996   ZZ=             -5.9852
   XY=              5.0073   XZ=              0.0032   YZ=              0.0059
 Octapole moment (field-independent basis, Debye-Ang**2):
  XXX=             74.4238  YYY=            -11.8982  ZZZ=              0.0006  XYY=             30.2901
  XXY=             16.1397  XXZ=              0.0002  XZZ=            -13.2357  YZZ=              5.3375
  YYZ=              0.0220  XYZ=              0.0055
 Hexadecapole moment (field-independent basis, Debye-Ang**3):
 XXXX=          -6852.5689 YYYY=          -1400.0393 ZZZZ=           -121.1481 XXXY=            -51.4967
 XXXZ=             -0.0340 YYYX=             68.7875 YYYZ=              0.0282 ZZZX=              0.0049
 ZZZY=              0.0010 XXYY=          -1324.7709 XXZZ=          -1277.9763 YYZZ=           -270.4637
 XXYZ=              0.0056 YYXZ=              0.0157 ZZXY=             23.6836
 N-N= 1.403740954375D+03 E-N=-5.659682569831D+03  KE= 1.210292880213D+03
 No NMR shielding tensors so no spin-rotation constants.
 Leave Link  601 at Mon Jan 19 00:00:25 2026, MaxMem=  8053063680 cpu:               2.0 elap:               0.2
 (Enter /appl/Gaussian16/AVX_revB01/g16/l701.exe)
 ... and contract with generalized density number  0.
 Compute integral first derivatives.
 Leave Link  701 at Mon Jan 19 00:00:25 2026, MaxMem=  8053063680 cpu:               1.8 elap:               0.1
 (Enter /appl/Gaussian16/AVX_revB01/g16/l702.exe)
 L702 exits ... SP integral derivatives will be done elsewhere.
 Leave Link  702 at Mon Jan 19 00:00:25 2026, MaxMem=  8053063680 cpu:               0.4 elap:               0.1
 (Enter /appl/Gaussian16/AVX_revB01/g16/l703.exe)
 Integral derivatives from FoFJK, PRISM(SPDF).
 Compute integral first derivatives, UseDBF=F ICtDFT=           0.
 Calling FoFJK, ICntrl=      2127 FMM=F ISym2X=0 I1Cent= 0 IOpClX= 0 NMat=1 NMatS=1 NMatT=0.
 FoFJK:  IHMeth= 1 ICntrl=    2127 DoSepK=F KAlg= 0 I1Cent=           0 FoldK=F
 IRaf=         0 NMat=       1 IRICut=       1 DoRegI=T DoRafI=F ISym2E= 0 IDoP0=0 IntGTp=1.
 FoFCou: FMM=F IPFlag=           0 FMFlag=      100000 FMFlg1=         800
         NFxFlg=           0 DoJE=F BraDBF=F KetDBF=F FulRan=T
         wScrn=  0.000000 ICntrl=      2127 IOpCl=  0 I1Cent=           0 NGrid=           0
         NMat0=    1 NMatS0=      1 NMatT0=    0 NMatD0=    1 NMtDS0=    0 NMtDT0=    0
 Symmetry not used in FoFCou.
 Leave Link  703 at Mon Jan 19 00:00:30 2026, MaxMem=  8053063680 cpu:              72.7 elap:               4.5
 (Enter /appl/Gaussian16/AVX_revB01/g16/l716.exe)
 Dipole        = 1.68147921D+00 5.75211659D-03 1.02627138D-03
 ***** Axes restored to original set *****
 -------------------------------------------------------------------
 Center     Atomic                   Forces (Hartrees/Bohr)
 Number     Number              X              Y              Z
 -------------------------------------------------------------------
      1        6          -0.001484912   -0.005140043   -0.000166673
      2        7          -0.006254327   -0.005076637   -0.000205293
      3        6          -0.002247066    0.007134775    0.000032400
      4        6          -0.002361332   -0.007015459   -0.000186792
      5        6          -0.005414547   -0.000190516   -0.000156388
      6        6          -0.003528837    0.008421408    0.000069423
      7        6           0.002752351    0.000635270    0.000094751
      8        6           0.000576355    0.000597094    0.000025942
      9        6          -0.002297445   -0.006056545   -0.000188764
     10        7          -0.002102734    0.012144700    0.000193291
     11        6           0.003048391   -0.002260892    0.000036530
     12        6           0.001073355    0.000113160    0.000035117
     13        6          -0.004573748    0.002335945   -0.000080890
     14       17           0.012532051    0.005138686    0.000455170
     15        6           0.009347679    0.000935678    0.000282326
     16        7          -0.004556890   -0.016029629   -0.000452305
     17        6          -0.000614509    0.005948413    0.000107150
     18        7          -0.009894753   -0.009258524   -0.000448841
     19        6           0.019043373    0.004464247    0.000586170
     20        1          -0.001375613   -0.001568926   -0.002069540
     21        1           0.000906303   -0.002024146   -0.000019939
     22        1          -0.001488843   -0.001630852    0.001929065
     23        1          -0.002871082   -0.004064579   -0.000168443
     24        1          -0.004806142   -0.000038840   -0.000134803
     25        1          -0.002307623    0.004440271    0.000025976
     26        1           0.002574236    0.004658533    0.000162767
     27        1           0.000373289    0.004133543    0.000090700
     28        1           0.005953022   -0.000746133    0.000151893
 -------------------------------------------------------------------
 Cartesian Forces:  Max     0.019043373 RMS     0.004744493
 Leave Link  716 at Mon Jan 19 00:00:30 2026, MaxMem=  8053063680 cpu:               0.4 elap:               0.0
 (Enter /appl/Gaussian16/AVX_revB01/g16/l103.exe)

 GradGradGradGradGradGradGradGradGradGradGradGradGradGradGradGradGradGrad
 Berny optimization.
 FormGI is forming the generalized inverse of G from B-inverse, IUseBI=4.
 Internal  Forces:  Max     0.019039036 RMS     0.004441649
 Search for a local minimum.
 Step number   1 out of a maximum of  166
 All quantities printed in internal units (Hartrees-Bohrs-Radians)
 RMS Force = .44416D-02 SwitMx=.10000D-02 MixMth= 1
 Mixed Optimization -- RFO/linear search
 Second derivative matrix not updated -- first step.
 ITU=  0
     Eigenvalues ---    0.01209   0.01679   0.01782   0.01921   0.01942
     Eigenvalues ---    0.01973   0.01997   0.02023   0.02086   0.02113
     Eigenvalues ---    0.02150   0.02187   0.02208   0.02230   0.02251
     Eigenvalues ---    0.02259   0.02260   0.02289   0.02290   0.02293
     Eigenvalues ---    0.02345   0.02616   0.02663   0.07603   0.07934
     Eigenvalues ---    0.16000   0.16000   0.16000   0.16000   0.16000
     Eigenvalues ---    0.16000   0.16000   0.16000   0.16000   0.22000
     Eigenvalues ---    0.22597   0.23310   0.23528   0.24517   0.25000
     Eigenvalues ---    0.25000   0.25000   0.25000   0.25000   0.25000
     Eigenvalues ---    0.25000   0.25000   0.33000   0.33943   0.34575
     Eigenvalues ---    0.34575   0.35014   0.35787   0.36010   0.36078
     Eigenvalues ---    0.36129   0.36139   0.36204   0.37418   0.38040
     Eigenvalues ---    0.39752   0.40069   0.42605   0.43518   0.43759
     Eigenvalues ---    0.45200   0.46797   0.47621   0.48044   0.48505
     Eigenvalues ---    0.49215   0.51897   0.52411   0.53906   0.55068
     Eigenvalues ---    0.62897   0.63966   0.65059
 RFO step:  Lambda=-6.46314167D-03 EMin= 1.20889665D-02
 Linear search not attempted -- first point.
 Iteration  1 RMS(Cart)=  0.02698648 RMS(Int)=  0.00005804
 Iteration  2 RMS(Cart)=  0.00008992 RMS(Int)=  0.00000730
 Iteration  3 RMS(Cart)=  0.00000001 RMS(Int)=  0.00000730
 ITry= 1 IFail=0 DXMaxC= 1.25D-01 DCOld= 1.00D+10 DXMaxT= 3.00D-01 DXLimC= 3.00D+00 Rises=F
 Variable       Old X    -DE/DX   Delta X   Delta X   Delta X     New X
                                 (Linear)    (Quad)   (Total)
    R1        2.71460   0.01091   0.00000   0.02680   0.02680   2.74140
    R2        2.06371   0.00275   0.00000   0.00780   0.00780   2.07151
    R3        2.05652   0.00186   0.00000   0.00522   0.00522   2.06174
    R4        2.06371   0.00274   0.00000   0.00779   0.00779   2.07150
    R5        2.61307   0.01283   0.00000   0.02731   0.02731   2.64037
    R6        2.55955   0.01853   0.00000   0.03528   0.03529   2.59484
    R7        2.61706   0.01025   0.00000   0.02078   0.02078   2.63784
    R8        2.67557   0.00572   0.00000   0.01140   0.01138   2.68695
    R9        2.61675   0.01122   0.00000   0.02352   0.02352   2.64027
   R10        2.03880   0.00497   0.00000   0.01352   0.01352   2.05232
   R11        2.63094   0.01145   0.00000   0.02484   0.02485   2.65579
   R12        2.04065   0.00480   0.00000   0.01310   0.01310   2.05375
   R13        2.61183   0.01105   0.00000   0.02259   0.02260   2.63443
   R14        2.03960   0.00500   0.00000   0.01362   0.01362   2.05322
   R15        2.62256   0.00964   0.00000   0.01937   0.01936   2.64192
   R16        2.03763   0.00532   0.00000   0.01442   0.01442   2.05206
   R17        2.71172   0.01049   0.00000   0.02353   0.02353   2.73525
   R18        2.46772   0.00987   0.00000   0.01467   0.01466   2.48239
   R19        2.73650   0.00424   0.00000   0.00977   0.00977   2.74627
   R20        2.55652   0.01200   0.00000   0.02213   0.02213   2.57865
   R21        2.65924   0.00838   0.00000   0.01711   0.01711   2.67635
   R22        2.71111   0.00726   0.00000   0.01817   0.01818   2.72928
   R23        2.58937   0.00592   0.00000   0.01052   0.01051   2.59988
   R24        2.03864   0.00414   0.00000   0.01126   0.01126   2.04991
   R25        3.26051   0.01354   0.00000   0.04024   0.04024   3.30075
   R26        2.66425   0.00871   0.00000   0.01991   0.01990   2.68416
   R27        2.45671   0.01904   0.00000   0.02905   0.02905   2.48576
   R28        2.04416   0.00532   0.00000   0.01459   0.01459   2.05876
   R29        2.53952   0.01428   0.00000   0.02595   0.02596   2.56548
   R30        2.54711   0.01373   0.00000   0.02474   0.02475   2.57186
   R31        2.47377   0.00394   0.00000   0.00575   0.00574   2.47951
    A1        1.92951   0.00104   0.00000   0.00639   0.00636   1.93587
    A2        1.87531   0.00129   0.00000   0.00750   0.00747   1.88278
    A3        1.92941   0.00103   0.00000   0.00629   0.00627   1.93568
    A4        1.91264  -0.00119   0.00000  -0.00740  -0.00743   1.90522
    A5        1.90410  -0.00100   0.00000  -0.00553  -0.00555   1.89855
    A6        1.91268  -0.00118   0.00000  -0.00732  -0.00734   1.90534
    A7        2.20783  -0.00066   0.00000  -0.00463  -0.00463   2.20320
    A8        2.18059   0.00102   0.00000   0.00191   0.00192   2.18250
    A9        1.89477  -0.00035   0.00000   0.00271   0.00271   1.89748
   A10        2.25183  -0.00078   0.00000  -0.00189  -0.00187   2.24996
   A11        1.92126  -0.00091   0.00000  -0.00250  -0.00251   1.91875
   A12        2.11009   0.00169   0.00000   0.00439   0.00438   2.11447
   A13        2.05453  -0.00036   0.00000  -0.00126  -0.00127   2.05326
   A14        2.11734   0.00043   0.00000   0.00217   0.00217   2.11951
   A15        2.11132  -0.00008   0.00000  -0.00091  -0.00091   2.11041
   A16        2.12358  -0.00035   0.00000   0.00074   0.00076   2.12434
   A17        2.07887  -0.00007   0.00000  -0.00187  -0.00188   2.07700
   A18        2.08073   0.00043   0.00000   0.00113   0.00112   2.08185
   A19        2.11156  -0.00211   0.00000  -0.00783  -0.00782   2.10374
   A20        2.08115   0.00120   0.00000   0.00480   0.00479   2.08594
   A21        2.09048   0.00091   0.00000   0.00303   0.00302   2.09350
   A22        2.06399   0.00208   0.00000   0.00787   0.00786   2.07185
   A23        2.12470  -0.00137   0.00000  -0.00590  -0.00590   2.11880
   A24        2.09450  -0.00071   0.00000  -0.00196  -0.00196   2.09254
   A25        2.10261  -0.00095   0.00000  -0.00390  -0.00391   2.09870
   A26        1.85080   0.00108   0.00000   0.00010   0.00009   1.85089
   A27        2.32977  -0.00012   0.00000   0.00381   0.00383   2.33359
   A28        2.30783  -0.00255   0.00000  -0.00660  -0.00660   2.30124
   A29        1.84771   0.00340   0.00000   0.00966   0.00966   1.85737
   A30        2.12764  -0.00085   0.00000  -0.00306  -0.00307   2.12457
[...]
 Alpha  occ. eigenvalues --   -7.23614  -7.22632  -7.22601  -1.02510  -0.98153
 Alpha  occ. eigenvalues --   -0.94391  -0.91869  -0.87622  -0.86130  -0.81439
 Alpha  occ. eigenvalues --   -0.78438  -0.76612  -0.74891  -0.71992  -0.68297
 Alpha  occ. eigenvalues --   -0.65218  -0.63704  -0.61311  -0.59902  -0.56893
 Alpha  occ. eigenvalues --   -0.55271  -0.52593  -0.51726  -0.48916  -0.48901
 Alpha  occ. eigenvalues --   -0.48600  -0.47075  -0.45459  -0.44907  -0.44769
 Alpha  occ. eigenvalues --   -0.43989  -0.42177  -0.41571  -0.41275  -0.40188
 Alpha  occ. eigenvalues --   -0.38120  -0.37874  -0.36526  -0.35968  -0.34960
 Alpha  occ. eigenvalues --   -0.32589  -0.32068  -0.30997  -0.29328  -0.28479
 Alpha  occ. eigenvalues --   -0.26444  -0.24817  -0.23885  -0.22183
 Alpha virt. eigenvalues --   -0.08634  -0.03303  -0.01300   0.00026   0.01369
 Alpha virt. eigenvalues --    0.02706   0.08380   0.08872   0.10060   0.13465
 Alpha virt. eigenvalues --    0.13804   0.14532   0.14601   0.14788   0.15632
 Alpha virt. eigenvalues --    0.16913   0.16927   0.17817   0.18714   0.20376
 Alpha virt. eigenvalues --    0.21378   0.23307   0.23994   0.25426   0.26698
 Alpha virt. eigenvalues --    0.28306   0.28848   0.31277   0.31798   0.34268
 Alpha virt. eigenvalues --    0.35032   0.36486   0.37122   0.39599   0.40014
 Alpha virt. eigenvalues --    0.41217   0.41750   0.43779   0.45673   0.46459
 Alpha virt. eigenvalues --    0.47745   0.48096   0.49628   0.50628   0.50952
 Alpha virt. eigenvalues --    0.52241   0.53733   0.53913   0.54483   0.54777
 Alpha virt. eigenvalues --    0.54853   0.56382   0.57804   0.58107   0.58356
 Alpha virt. eigenvalues --    0.59229   0.59562   0.59796   0.60184   0.61909
 Alpha virt. eigenvalues --    0.62963   0.62966   0.64379   0.65129   0.65356
 Alpha virt. eigenvalues --    0.65490   0.68212   0.68543   0.69412   0.71753
 Alpha virt. eigenvalues --    0.72912   0.73496   0.75533   0.78519   0.79087
 Alpha virt. eigenvalues --    0.79459   0.80692   0.81356   0.81469   0.82729
 Alpha virt. eigenvalues --    0.82893   0.83174   0.83954   0.84414   0.85828
 Alpha virt. eigenvalues --    0.86359   0.87333   0.88145   0.88569   0.89995
 Alpha virt. eigenvalues --    0.91059   0.91515   0.93842   0.94136   0.94352
 Alpha virt. eigenvalues --    0.94527   0.94615   0.96120   0.96473   0.98522
 Alpha virt. eigenvalues --    1.00384   1.01457   1.04205   1.07664   1.09410
 Alpha virt. eigenvalues --    1.09810   1.12840   1.14634   1.16926   1.17198
 Alpha virt. eigenvalues --    1.19541   1.19597   1.23322   1.23577   1.25147
 Alpha virt. eigenvalues --    1.26673   1.30134   1.30175   1.30264   1.31956
 Alpha virt. eigenvalues --    1.33563   1.33681   1.36505   1.38460   1.39254
 Alpha virt. eigenvalues --    1.41628   1.43501   1.43684   1.46179   1.46264
 Alpha virt. eigenvalues --    1.47664   1.48289   1.48705   1.49183   1.51119
 Alpha virt. eigenvalues --    1.53433   1.58901   1.63109   1.64997   1.67615
 Alpha virt. eigenvalues --    1.69916   1.72185   1.73920   1.76219   1.76799
 Alpha virt. eigenvalues --    1.79228   1.79249   1.79987   1.82742   1.84730
 Alpha virt. eigenvalues --    1.85068   1.85491   1.87740   1.88691   1.91276
 Alpha virt. eigenvalues --    1.92973   1.95172   1.95366   1.96412   1.99098
 Alpha virt. eigenvalues --    2.01039   2.02685   2.03066   2.05087   2.08619
 Alpha virt. eigenvalues --    2.10108   2.11776   2.12962   2.13577   2.16490
 Alpha virt. eigenvalues --    2.17316   2.18521   2.20438   2.20862   2.21307
 Alpha virt. eigenvalues --    2.23860   2.26003   2.26472   2.27476   2.31182
 Alpha virt. eigenvalues --    2.32791   2.33276   2.34315   2.37030   2.37208
 Alpha virt. eigenvalues --    2.39793   2.41944   2.43673   2.47370   2.51344
 Alpha virt. eigenvalues --    2.51373   2.53228   2.58876   2.59351   2.60887
 Alpha virt. eigenvalues --    2.62727   2.63245   2.64820   2.65038   2.67182
 Alpha virt. eigenvalues --    2.67544   2.69699   2.73262   2.75693   2.76975
 Alpha virt. eigenvalues --    2.79485   2.80792   2.83770   2.86015   2.88497
 Alpha virt. eigenvalues --    2.96771   2.99226   3.02634   3.06464   3.22217
 Alpha virt. eigenvalues --    3.26075   3.37710   3.44105   3.53600   4.02968
 Alpha virt. eigenvalues --    4.03329   4.06540   4.07641   4.11054   4.13920
 Alpha virt. eigenvalues --    4.16947   4.19414   4.24711   4.28206   4.30875
 Alpha virt. eigenvalues --    4.36392   4.41768   4.43553   4.51680   4.63388
 Alpha virt. eigenvalues --    4.67677   4.77021   4.85735
          Condensed to atoms (all electrons):
               1          2          3          4          5          6
     1  C    4.998456   0.289822  -0.042880  -0.002987  -0.000129   0.000009
     2  N    0.289822   7.152254   0.273776  -0.093055   0.005609  -0.000254
     3  C   -0.042880   0.273776   4.700937   0.485777   0.002862  -0.041582
     4  C   -0.002987  -0.093055   0.485777   5.077847   0.512628  -0.026494
     5  C   -0.000129   0.005609   0.002862   0.512628   4.863542   0.526403
     6  C    0.000009  -0.000254  -0.041582  -0.026494   0.526403   4.911673
     7  C   -0.000072   0.009539  -0.067927  -0.054348  -0.023329   0.487547
     8  C    0.004436  -0.031375   0.456449  -0.054443  -0.039011   0.000939
     9  C    0.006751  -0.083403   0.022529   0.014766  -0.000098   0.009111
    10  N   -0.000095   0.006490   0.008043  -0.000126   0.000005   0.000169
    11  C   -0.000020   0.001088   0.000069   0.000007   0.000000   0.000004
    12  C    0.000000   0.000010   0.000007  -0.000000  -0.000000  -0.000000
    13  C   -0.000000   0.000000  -0.000000   0.000000   0.000000  -0.000000
    14  Cl  -0.000000  -0.000000   0.000000  -0.000000  -0.000000  -0.000000
    15  C    0.000000   0.000000  -0.000000   0.000000   0.000000  -0.000000
    16  N    0.000005  -0.000046  -0.000001  -0.000000   0.000000  -0.000000
    17  C    0.000060   0.002417  -0.000260  -0.000002   0.000000  -0.000000
    18  N   -0.006850  -0.080161  -0.000079  -0.000178   0.000002   0.000000
    19  C   -0.036053   0.280767  -0.092835   0.002769  -0.000140  -0.000365
    20  H    0.374937  -0.040811  -0.000619   0.002531   0.000000  -0.000001
    21  H    0.375764  -0.032745   0.001965   0.000067   0.000001  -0.000000
    22  H    0.374904  -0.040813  -0.000622   0.002544   0.000000  -0.000001
    23  H    0.004564  -0.008155  -0.035641   0.351860  -0.040875   0.004114
    24  H   -0.000001  -0.000106   0.002714  -0.039006   0.359352  -0.039019
    25  H   -0.000000   0.000004   0.001011   0.004337  -0.039466   0.360650
    26  H    0.000003  -0.000097   0.004806   0.000374   0.004333  -0.045466
    27  H    0.000000  -0.000000  -0.000000  -0.000000   0.000000   0.000000
    28  H    0.000000  -0.000000  -0.000000  -0.000000   0.000000  -0.000000
               7          8          9         10         11         12
     1  C   -0.000072   0.004436   0.006751  -0.000095  -0.000020   0.000000
     2  N    0.009539  -0.031375  -0.083403   0.006490   0.001088   0.000010
     3  C   -0.067927   0.456449   0.022529   0.008043   0.000069   0.000007
     4  C   -0.054348  -0.054443   0.014766  -0.000126   0.000007  -0.000000
     5  C   -0.023329  -0.039011  -0.000098   0.000005   0.000000  -0.000000
     6  C    0.487547   0.000939   0.009111   0.000169   0.000004  -0.000000
     7  C    5.097028   0.497615  -0.104577  -0.005053  -0.000063  -0.000003
     8  C    0.497615   4.950710   0.234749  -0.088490   0.000864  -0.000597
     9  C   -0.104577   0.234749   5.087969   0.458795  -0.045202  -0.000403
    10  N   -0.005053  -0.088490   0.458795   7.053953   0.370840  -0.066345
    11  C   -0.000063   0.000864  -0.045202   0.370840   4.779211   0.454200
    12  C   -0.000003  -0.000597  -0.000403  -0.066345   0.454200   5.104821
    13  C   -0.000000   0.000005  -0.000154   0.005583  -0.004629   0.504226
    14  Cl  -0.000000  -0.000000   0.000000  -0.000071   0.003885  -0.065950
    15  C    0.000000  -0.000000   0.000115   0.000028  -0.023569  -0.045893
    16  N   -0.000000   0.000023   0.000431   0.005357  -0.065929  -0.039296
    17  C    0.000010   0.004179  -0.027532  -0.058782   0.377404  -0.068207
    18  N   -0.000073   0.008356  -0.056916  -0.018855  -0.097799   0.004167
    19  C    0.016428  -0.020668   0.273225  -0.095918  -0.010319   0.002503
    20  H   -0.000007  -0.000127  -0.000031   0.000002   0.000001  -0.000000
    21  H    0.000007  -0.000040   0.000393  -0.000012   0.000037  -0.000000
    22  H   -0.000008  -0.000127  -0.000030   0.000002   0.000001  -0.000000
    23  H    0.000474   0.004382  -0.000242   0.000001  -0.000000   0.000000
    24  H    0.004190   0.001022   0.000010  -0.000000   0.000000  -0.000000
    25  H   -0.036799   0.001704  -0.000207  -0.000000  -0.000000  -0.000000
    26  H    0.358381  -0.035098  -0.008236   0.003763  -0.000016  -0.000003
    27  H    0.000005  -0.000011   0.000597  -0.000322  -0.029186   0.350518
    28  H   -0.000000   0.000000   0.000002   0.000008   0.000453   0.002927
              13         14         15         16         17         18
     1  C   -0.000000  -0.000000   0.000000   0.000005   0.000060  -0.006850
     2  N    0.000000  -0.000000   0.000000  -0.000046   0.002417  -0.080161
     3  C   -0.000000   0.000000  -0.000000  -0.000001  -0.000260  -0.000079
     4  C    0.000000  -0.000000   0.000000  -0.000000  -0.000002  -0.000178
     5  C    0.000000  -0.000000   0.000000   0.000000   0.000000   0.000002
     6  C   -0.000000  -0.000000  -0.000000  -0.000000  -0.000000   0.000000
     7  C   -0.000000  -0.000000   0.000000  -0.000000   0.000010  -0.000073
     8  C    0.000005  -0.000000  -0.000000   0.000023   0.004179   0.008356
     9  C   -0.000154   0.000000   0.000115   0.000431  -0.027532  -0.056916
    10  N    0.005583  -0.000071   0.000028   0.005357  -0.058782  -0.018855
    11  C   -0.004629   0.003885  -0.023569  -0.065929   0.377404  -0.097799
    12  C    0.504226  -0.065950  -0.045893  -0.039296  -0.068207   0.004167
    13  C    5.113872   0.222087   0.419335  -0.017398  -0.033390   0.000185
    14  Cl   0.222087  16.891462  -0.052574   0.003798   0.000647   0.000012
    15  C    0.419335  -0.052574   4.847069   0.471987  -0.053692   0.003242
    16  N   -0.017398   0.003798   0.471987   6.863389   0.379112  -0.086085
    17  C   -0.033390   0.000647  -0.053692   0.379112   4.710470   0.397004
    18  N    0.000185   0.000012   0.003242  -0.086085   0.397004   7.036067
    19  C    0.000003  -0.000001  -0.000027  -0.000780  -0.049333   0.422919
    20  H    0.000000  -0.000000  -0.000000  -0.000000  -0.000000   0.000359
    21  H   -0.000000  -0.000000   0.000001  -0.000035   0.000030   0.016150
    22  H    0.000000  -0.000000  -0.000000  -0.000000  -0.000000   0.000359
    23  H   -0.000000   0.000000  -0.000000  -0.000000  -0.000000   0.000001
    24  H    0.000000  -0.000000  -0.000000  -0.000000   0.000000  -0.000000
    25  H    0.000000   0.000000   0.000000  -0.000000  -0.000000  -0.000000
    26  H    0.000000  -0.000000   0.000000  -0.000000   0.000002   0.000000
    27  H   -0.047087  -0.001846   0.004408  -0.000524   0.005528  -0.000123
    28  H   -0.067238   0.005421   0.381191  -0.049651   0.004156  -0.000076
              19         20         21         22         23         24
     1  C   -0.036053   0.374937   0.375764   0.374904   0.004564  -0.000001
     2  N    0.280767  -0.040811  -0.032745  -0.040813  -0.008155  -0.000106
     3  C   -0.092835  -0.000619   0.001965  -0.000622  -0.035641   0.002714
     4  C    0.002769   0.002531   0.000067   0.002544   0.351860  -0.039006
     5  C   -0.000140   0.000000   0.000001   0.000000  -0.040875   0.359352
     6  C   -0.000365  -0.000001  -0.000000  -0.000001   0.004114  -0.039019
     7  C    0.016428  -0.000007   0.000007  -0.000008   0.000474   0.004190
     8  C   -0.020668  -0.000127  -0.000040  -0.000127   0.004382   0.001022
     9  C    0.273225  -0.000031   0.000393  -0.000030  -0.000242   0.000010
    10  N   -0.095918   0.000002  -0.000012   0.000002   0.000001  -0.000000
    11  C   -0.010319   0.000001   0.000037   0.000001  -0.000000   0.000000
    12  C    0.002503  -0.000000  -0.000000  -0.000000   0.000000  -0.000000
    13  C    0.000003   0.000000  -0.000000   0.000000  -0.000000   0.000000
    14  Cl  -0.000001  -0.000000  -0.000000  -0.000000   0.000000  -0.000000
    15  C   -0.000027  -0.000000   0.000001  -0.000000  -0.000000  -0.000000
    16  N   -0.000780  -0.000000  -0.000035  -0.000000  -0.000000  -0.000000
    17  C   -0.049333  -0.000000   0.000030  -0.000000  -0.000000   0.000000
    18  N    0.422919   0.000359   0.016150   0.000359   0.000001  -0.000000
    19  C    4.753042   0.000970  -0.002370   0.000973  -0.000008   0.000001
    20  H    0.000970   0.555243  -0.023446  -0.041739   0.000649  -0.000000
    21  H   -0.002370  -0.023446   0.473780  -0.023410  -0.000047  -0.000000
    22  H    0.000973  -0.041739  -0.023410   0.555242   0.000655  -0.000000
    23  H   -0.000008   0.000649  -0.000047   0.000655   0.583671  -0.005053
    24  H    0.000001  -0.000000  -0.000000  -0.000000  -0.005053   0.582650
    25  H    0.000005   0.000000  -0.000000   0.000000  -0.000157  -0.005152
    26  H    0.000099  -0.000000  -0.000000  -0.000000   0.000016  -0.000165
    27  H    0.000036  -0.000000   0.000000  -0.000000   0.000000  -0.000000
    28  H   -0.000006  -0.000000  -0.000000  -0.000000  -0.000000  -0.000000
              25         26         27         28
     1  C   -0.000000   0.000003   0.000000   0.000000
     2  N    0.000004  -0.000097  -0.000000  -0.000000
     3  C    0.001011   0.004806  -0.000000  -0.000000
     4  C    0.004337   0.000374  -0.000000  -0.000000
     5  C   -0.039466   0.004333   0.000000   0.000000
     6  C    0.360650  -0.045466   0.000000  -0.000000
     7  C   -0.036799   0.358381   0.000005  -0.000000
     8  C    0.001704  -0.035098  -0.000011   0.000000
     9  C   -0.000207  -0.008236   0.000597   0.000002
    10  N   -0.000000   0.003763  -0.000322   0.000008
    11  C   -0.000000  -0.000016  -0.029186   0.000453
    12  C   -0.000000  -0.000003   0.350518   0.002927
    13  C    0.000000   0.000000  -0.047087  -0.067238
    14  Cl   0.000000  -0.000000  -0.001846   0.005421
    15  C    0.000000   0.000000   0.004408   0.381191
    16  N   -0.000000  -0.000000  -0.000524  -0.049651
    17  C   -0.000000   0.000002   0.005528   0.004156
    18  N   -0.000000   0.000000  -0.000123  -0.000076
    19  C    0.000005   0.000099   0.000036  -0.000006
    20  H    0.000000  -0.000000  -0.000000  -0.000000
    21  H   -0.000000  -0.000000   0.000000  -0.000000
    22  H    0.000000  -0.000000  -0.000000  -0.000000
    23  H   -0.000157   0.000016   0.000000  -0.000000
    24  H   -0.005152  -0.000165  -0.000000  -0.000000
    25  H    0.581964  -0.004285   0.000000   0.000000
    26  H   -0.004285   0.565535   0.000005  -0.000000
    27  H    0.000000   0.000005   0.541694  -0.000153
    28  H    0.000000  -0.000000  -0.000153   0.556003
 Mulliken charges:
               1
     1  C   -0.340624
     2  N   -0.610755
     3  C    0.321502
     4  C   -0.184866
     5  C   -0.131689
     6  C   -0.147437
     7  C   -0.178965
     8  C    0.104554
     9  C    0.217589
    10  N   -0.578969
    11  C    0.288670
    12  C   -0.136684
    13  C   -0.095403
    14  Cl  -0.006868
    15  C    0.048378
    16  N   -0.464358
    17  C    0.410179
    18  N   -0.541629
    19  C    0.555084
    20  H    0.172091
    21  H    0.213909
    22  H    0.172071
    23  H    0.139790
    24  H    0.138562
    25  H    0.136391
    26  H    0.156049
    27  H    0.176462
    28  H    0.166964
 Sum of Mulliken charges =  -0.00000
 Mulliken charges with hydrogens summed into heavy atoms:
               1
     1  C    0.217448
     2  N   -0.610755
     3  C    0.321502
     4  C   -0.045077
     5  C    0.006873
     6  C   -0.011046
     7  C   -0.022915
     8  C    0.104554
     9  C    0.217589
    10  N   -0.578969
    11  C    0.288670
    12  C    0.039778
    13  C   -0.095403
    14  Cl  -0.006868
    15  C    0.215342
    16  N   -0.464358
    17  C    0.410179
    18  N   -0.541629
    19  C    0.555084
 Electronic spatial extent (au):  <R**2>=           6647.4766
 Charge=             -0.0000 electrons
 Dipole moment (field-independent basis, Debye):
    X=              4.3295    Y=             -0.0266    Z=              0.0011  Tot=              4.3296
 Quadrupole moment (field-independent basis, Debye-Ang):
   XX=           -102.0236   YY=           -110.8422   ZZ=           -115.8836
   XY=              4.8741   XZ=              0.0026   YZ=              0.0026
 Traceless Quadrupole moment (field-independent basis, Debye-Ang):
   XX=              7.5595   YY=             -1.2591   ZZ=             -6.3005
   XY=              4.8741   XZ=              0.0026   YZ=              0.0026
 Octapole moment (field-independent basis, Debye-Ang**2):
  XXX=             78.8352  YYY=            -12.5240  ZZZ=             -0.0002  XYY=             31.8813
  XXY=             16.8461  XXZ=              0.0087  XZZ=            -13.5045  YZZ=              5.3873
  YYZ=              0.0097  XYZ=              0.0009
 Hexadecapole moment (field-independent basis, Debye-Ang**3):
 XXXX=          -6952.8903 YYYY=          -1421.2841 ZZZZ=           -122.0406 XXXY=            -58.2755
 XXXZ=              0.0337 YYYX=             71.1442 YYYZ=              0.0133 ZZZX=             -0.0023
 ZZZY=             -0.0008 XXYY=          -1342.9273 XXZZ=          -1301.2310 YYZZ=           -275.4824
 XXYZ=             -0.0007 YYXZ=              0.0104 ZZXY=             24.6113
 N-N= 1.393054308120D+03 E-N=-5.637767148179D+03  KE= 1.209629603584D+03
 No NMR shielding tensors so no spin-rotation constants.
 Leave Link  601 at Mon Jan 19 00:01:37 2026, MaxMem=  8053063680 cpu:               1.8 elap:               0.2
 (Enter /appl/Gaussian16/AVX_revB01/g16/l9999.exe)
 1\1\GINC-CNODE8\FOpt\RB3LYP\6-31G(d)\C14H9Cl1N4\JUNHKIM\19-Jan-2026\0\
 \#P b3lyp/6-31g* opt SCF=XQC\\Gaussian input prepared by ASE\\0,1\C,-1
 .6240488444,-2.6831283707,-0.0984262158\N,-1.2268094856,-1.288903437,-
 0.0605228968\C,-2.0824656113,-0.1837065871,-0.0623350829\C,-3.47626109
 6,-0.1603949935,-0.1009268371\C,-4.1005320133,1.0882947836,-0.09345660
 22\C,-3.3635087675,2.2833833027,-0.04895465\C,-1.9713629596,2.25485145
 26,-0.010539888\C,-1.3259437,1.0165287101,-0.0171733973\C,0.0628361862
 ,0.6135804763,0.0137265636\N,1.1728758577,1.3144411677,0.0588832067\C,
 2.3175572657,0.567962228,0.0761777516\C,3.5666020004,1.2300387141,0.12
 44506565\C,4.7082338722,0.4665203738,0.141366759\Cl,6.2959020651,1.206
 6751308,0.2007069316\C,4.6083182845,-0.9481364814,0.1104467506\N,3.462
 6532052,-1.5943378684,0.0653909677\C,2.312052252,-0.8731007354,0.04736
 55373\N,1.149050074,-1.582660139,0.0005138012\C,0.0727005149,-0.837216
 1388,-0.0149381114\H,-2.1890104017,-2.9011228118,-1.011892471\H,-0.715
 442166,-3.2868653297,-0.0836598178\H,-2.2405013357,-2.9348234708,0.772
 0609644\H,-4.05896729,-1.0754839015,-0.1355673596\H,-5.185772601,1.133
 4269181,-0.1229528589\H,-3.8859221889,3.2351907355,-0.0445847718\H,-1.
 3886057343,3.1703797443,0.0240625297\H,3.5882462288,2.3142372785,0.146
 6139048\H,5.5181273884,-1.545629751,0.124161636\\Version=ES64L-G16RevB
 .01\State=1-A\HF=-1218.1410008\RMSD=7.863e-09\RMSF=1.176e-04\Dipole=-1
 .7027134,-0.0056534,-0.0474514\Quadrupole=5.5391317,-0.8683484,-4.6707
 833,3.6809197,0.3581221,0.1771698\PG=C01 [X(C14H9Cl1N4)]\\@


 A DANDELION FROM A LOVER MEANS MORE THAN AN ORCHID FROM A FRIEND.
 Job cpu time:       0 days  0 hours 21 minutes 29.9 seconds.
 Elapsed time:       0 days  0 hours  1 minutes 22.5 seconds.
 File lengths (MBytes):  RWF=     77 Int=      0 D2E=      0 Chk=      9 Scr=      2
 Normal termination of Gaussian 16 at Mon Jan 19 00:01:37 2026.
