
                                 *****************
                                 * O   R   C   A *
                                 *****************

           --- An Ab Initio, DFT and Semiempirical electronic structure package ---

                  #######################################################
                  #                        -***-                        #
                  #          Department of theory and spectroscopy      #
                  #               Directorship: Frank Neese             #
                  #        Max Planck Institute fuer Kohlenforschung    #
                  #                Kaiser Wilhelm Platz 1               #
                  #                 D-45470 Muelheim/Ruhr               #
                  #                      Germany                        #
                  #                                                     #
                  #                  All rights reserved                #
                  #                        -***-                        #
                  #######################################################


                         Program Version 4.2.1 -  RELEASE  -


 With contributions from (in alphabetic order):
   Daniel Aravena         : Magnetic Suceptibility
   Michael Atanasov       : Ab Initio Ligand Field Theory (pilot matlab implementation)
   Alexander A. Auer      : GIAO ZORA, VPT2
   Ute Becker             : Parallelization
   Giovanni Bistoni       : ED, misc. LED, open-shell LED, HFLD
   Martin Brehm           : Molecular dynamics
   Dmytro Bykov           : SCF Hessian
   Vijay G. Chilkuri      : MRCI spin determinant printing, contributions to CSF-ICE
   Dipayan Datta          : RHF DLPNO-CCSD density
   Achintya Kumar Dutta   : EOM-CC, STEOM-CC
   Dmitry Ganyushin       : Spin-Orbit,Spin-Spin,Magnetic field MRCI
   Miquel Garcia          : C-PCM Hessian, Gaussian charge scheme
   Yang Guo               : DLPNO-NEVPT2, CIM, IAO-localization
   Andreas Hansen         : Spin unrestricted coupled pair/coupled cluster methods
   Benjamin Helmich-Paris : CASSCF linear response (MC-RPA)
   Lee Huntington         : MR-EOM, pCC
   Robert Izsak           : Overlap fitted RIJCOSX, COSX-SCS-MP3, EOM
   Christian Kollmar      : KDIIS, OOCD, Brueckner-CCSD(T), CCSD density
   Simone Kossmann        : Meta GGA functionals, TD-DFT gradient, OOMP2, MP2 Hessian
   Martin Krupicka        : AUTO-CI
   Lucas Lang             : DCDCAS
   Dagmar Lenk            : GEPOL surface, SMD
   Dimitrios Liakos       : Extrapolation schemes; Compound Job, initial MDCI parallelization
   Dimitrios Manganas     : Further ROCIS development; embedding schemes
   Dimitrios Pantazis     : SARC Basis sets
   Taras Petrenko         : DFT Hessian,TD-DFT gradient, ASA, ECA, R-Raman, ABS, FL, XAS/XES, NRVS
   Peter Pinski           : DLPNO-MP2, DLPNO-MP2 Gradient
   Christoph Reimann      : Effective Core Potentials
   Marius Retegan         : Local ZFS, SOC
   Christoph Riplinger    : Optimizer, TS searches, QM/MM, DLPNO-CCSD(T), (RO)-DLPNO pert. Triples
   Tobias Risthaus        : Range-separated hybrids, TD-DFT gradient, RPA, STAB
   Michael Roemelt        : Original ROCIS implementation
   Masaaki Saitow         : Open-shell DLPNO-CCSD energy and density
   Barbara Sandhoefer     : DKH picture change effects
   Avijit Sen             : IP-ROCIS
   Kantharuban Sivalingam : CASSCF convergence, NEVPT2, FIC-MRCI
   Bernardo de Souza      : ESD, SOC TD-DFT
   Georgi Stoychev        : AutoAux, RI-MP2 NMR
   Willem Van den Heuvel  : Paramagnetic NMR
   Boris Wezisla          : Elementary symmetry handling
   Frank Wennmohs         : Technical directorship


 We gratefully acknowledge several colleagues who have allowed us to
 interface, adapt or use parts of their codes:
   Stefan Grimme, W. Hujo, H. Kruse,             : VdW corrections, initial TS optimization,
                  C. Bannwarth                     DFT functionals, gCP, sTDA/sTD-DF
   Ed Valeev, F. Pavosevic, A. Kumar             : LibInt (2-el integral package), F12 methods
   Garnet Chan, S. Sharma, J. Yang, R. Olivares  : DMRG
   Ulf Ekstrom                                   : XCFun DFT Library
   Mihaly Kallay                                 : mrcc  (arbitrary order and MRCC methods)
   Andreas Klamt, Michael Diedenhofen            : otool_cosmo (COSMO solvation model)
   Jiri Pittner, Ondrej Demel                    : Mk-CCSD
   Frank Weinhold                                : gennbo (NPA and NBO analysis)
   Christopher J. Cramer and Donald G. Truhlar   : smd solvation model
   Lars Goerigk                                  : TD-DFT with DH, B97 family of functionals
   V. Asgeirsson, H. Jonsson                     : NEB implementation
   FAccTs GmbH                                   : IRC, NEB, NEB-TS, Multilevel, MM, QM/MM, CI optimization
   S Lehtola, MJT Oliveira, MAL Marques          : LibXC Library


 Your calculation uses the libint2 library for the computation of 2-el integrals
 For citations please refer to: http://libint.valeyev.net

 Your ORCA version has been built with support for libXC version: 4.2.3
 For citations please refer to: https://tddft.org/programs/libxc/

 This ORCA versions uses:
   CBLAS   interface :  Fast vector & matrix operations
   LAPACKE interface :  Fast linear algebra routines
   SCALAPACK package :  Parallel linear algebra routines


Your calculation utilizes the semiempirical GFN2-xTB method
Please cite in your paper:
C. Bannwarth, Ehlert S., S. Grimme,  J. Chem. Theory Comput., 15, (2019), 1652.
   

----- Orbital basis set information -----
Your calculation utilizes the basis: def2-SVP
   F. Weigend and R. Ahlrichs, Phys. Chem. Chem. Phys. 7, 3297 (2005).

================================================================================
                                        WARNINGS
                       Please study these warnings very carefully!
================================================================================


WARNING: Geometry Optimization
  ===> : Switching off AutoStart
         For restart on a previous wavefunction, please use MOREAD

WARNING: Found dipole moment calculation with XTB calculation
  ===> : Switching off dipole moment calculation


WARNING: otool_xtb not available.
         Trying xtb instead   ... done.
  ===> : Now using xtb as program name.


INFO   : the flag for use of LIBINT has been found!

================================================================================
                                       INPUT FILE
================================================================================
NAME = pre_opt.inp
|  1> ! XTB2 Opt
|  2> * xyz 0 1
|  3> C     -1.694952   -2.714052   -0.108065
|  4> N     -1.280287   -1.317245   -0.011554
|  5> C     -2.071944   -0.212696   -0.025121
|  6> C     -3.466485   -0.158189   -0.089658
|  7> C     -4.078584    1.109543   -0.100690
|  8> C     -3.298628    2.287285   -0.052143
|  9> C     -1.895340    2.214261    0.006599
| 10> C     -1.316880    0.948602    0.019360
| 11> C     -0.007907    0.537793    0.051965
| 12> N      1.141920    1.252500    0.077917
| 13> C      2.321656    0.561303    0.083078
| 14> C      3.543964    1.234563    0.112415
| 15> C      4.736041    0.503779    0.114718
| 16> Cl     6.279934    1.335404    0.151728
| 17> C      4.690586   -0.895583    0.086916
| 18> N      3.495222   -1.544748    0.057777
| 19> C      2.317700   -0.866877    0.055166
| 20> N      1.133052   -1.548472    0.024398
| 21> C     -0.018656   -0.832353    0.025826
| 22> H     -2.056971   -2.923864   -1.136161
| 23> H     -0.845257   -3.390861    0.122263
| 24> H     -2.510290   -2.916274    0.617761
| 25> H     -4.064362   -1.059052   -0.131430
| 26> H     -5.157246    1.182831   -0.148807
| 27> H     -3.785030    3.253953   -0.063459
| 28> H     -1.289000    3.110301    0.037796
| 29> H      3.569651    2.317211    0.133187
| 30> H      5.608094   -1.469062    0.088215
| 31> *
| 32> 
| 33>                          ****END OF INPUT****
================================================================================

                       *****************************
                       * Geometry Optimization Run *
                       *****************************

Geometry optimization settings:
Update method            Update   .... BFGS
Choice of coordinates    CoordSys .... Z-matrix Internals
Initial Hessian          InHess   .... Almoef's Model

Convergence Tolerances:
Energy Change            TolE     ....  5.0000e-06 Eh
Max. Gradient            TolMAXG  ....  3.0000e-04 Eh/bohr
RMS Gradient             TolRMSG  ....  1.0000e-04 Eh/bohr
Max. Displacement        TolMAXD  ....  4.0000e-03 bohr
RMS Displacement         TolRMSD  ....  2.0000e-03 bohr
Strict Convergence                ....  False
------------------------------------------------------------------------------
                        ORCA OPTIMIZATION COORDINATE SETUP
------------------------------------------------------------------------------

The optimization will be done in new redundant internal coordinates
Making redundant internal coordinates   ...  (new redundants) done
Evaluating the initial hessian          ...  (Almloef) done
Evaluating the coordinates              ...  done
Calculating the B-matrix                .... done
Calculating the G-matrix                .... done
Diagonalizing the G-matrix              .... done
Small eigenvalue found = 1.636e-02
The first mode is                       ....   78
The number of degrees of freedom        ....   78

    -----------------------------------------------------------------
                    Redundant Internal Coordinates


    -----------------------------------------------------------------
         Definition                    Initial Value    Approx d2E/dq
    -----------------------------------------------------------------
      1. B(N   1,C   0)                  1.4603         0.432310   
      2. B(C   2,N   1)                  1.3590         0.627052   
      3. B(C   3,C   2)                  1.3971         0.608717   
      4. B(C   4,C   3)                  1.4078         0.585225   
      5. B(C   5,C   4)                  1.4134         0.573283   
      6. B(C   6,C   5)                  1.4064         0.588235   
      7. B(C   7,C   2)                  1.3859         0.634283   
      8. B(C   7,C   6)                  1.3916         0.621036   
      9. B(C   8,C   7)                  1.3723         0.666746   
     10. B(N   9,C   8)                  1.3541         0.638491   
     11. B(C  10,N   9)                  1.3673         0.608225   
     12. B(C  11,C  10)                  1.3958         0.611690   
     13. B(C  12,C  11)                  1.3982         0.606148   
     14. B(Cl 13,C  12)                  1.7540         0.368102   
     15. B(C  14,C  12)                  1.4004         0.601429   
     16. B(N  15,C  14)                  1.3606         0.623482   
     17. B(C  16,N  15)                  1.3587         0.627780   
     18. B(C  16,C  10)                  1.4285         0.542477   
     19. B(N  17,C  16)                  1.3671         0.608754   
     20. B(C  18,N  17)                  1.3562         0.633596   
     21. B(C  18,C   8)                  1.3704         0.671351   
     22. B(C  18,N   1)                  1.3521         0.643146   
     23. B(H  19,C   0)                  1.1100         0.334613   
     24. B(H  20,C   0)                  1.1105         0.334036   
     25. B(H  21,C   0)                  1.1102         0.334374   
     26. B(H  22,C   3)                  1.0820         0.370820   
     27. B(H  23,C   4)                  1.0822         0.370542   
     28. B(H  24,C   5)                  1.0822         0.370564   
     29. B(H  25,C   6)                  1.0824         0.370346   
     30. B(H  26,C  11)                  1.0832         0.369274   
     31. B(H  27,C  14)                  1.0820         0.370855   
     32. A(H  20,C   0,H  21)          108.3811         0.284135   
     33. A(H  19,C   0,H  21)          109.3659         0.284211   
     34. A(N   1,C   0,H  20)          110.6105         0.326157   
     35. A(N   1,C   0,H  19)          109.5508         0.326250   
     36. A(N   1,C   0,H  21)          109.8513         0.326212   
     37. A(H  19,C   0,H  20)          109.0547         0.284166   
     38. A(C   0,N   1,C  18)          127.5769         0.404417   
     39. A(C   2,N   1,C  18)          104.6163         0.432115   
     40. A(C   0,N   1,C   2)          127.6883         0.402613   
     41. A(C   3,C   2,C   7)          120.8381         0.434411   
     42. A(N   1,C   2,C   7)          111.3061         0.433877   
     43. A(N   1,C   2,C   3)          127.8521         0.430680   
     44. A(C   2,C   3,C   4)          118.0010         0.428174   
     45. A(C   4,C   3,H  22)          120.6098         0.351219   
     46. A(C   2,C   3,H  22)          121.3892         0.353565   
     47. A(C   3,C   4,C   5)          120.6739         0.423601   
     48. A(C   3,C   4,H  23)          119.6492         0.351174   
     49. A(C   5,C   4,H  23)          119.6767         0.349954   
     50. A(C   4,C   5,C   6)          120.5816         0.423990   
     51. A(C   4,C   5,H  24)          119.7304         0.349957   
     52. A(C   6,C   5,H  24)          119.6877         0.351482   
     53. A(C   5,C   6,H  25)          121.1429         0.351447   
     54. A(C   7,C   6,H  25)          121.3181         0.354690   
     55. A(C   5,C   6,C   7)          117.5387         0.430112   
     56. A(C   6,C   7,C   8)          131.9865         0.439923   
     57. A(C   2,C   7,C   8)          105.6401         0.441603   
     58. A(C   2,C   7,C   6)          122.3658         0.435980   
     59. A(N   9,C   8,C  18)          122.3252         0.439771   
     60. A(C   7,C   8,C  18)          106.9392         0.446165   
     61. A(C   7,C   8,N   9)          130.7233         0.439225   
     62. A(C   8,N   9,C  10)          117.7691         0.429196   
     63. A(N   9,C  10,C  11)          120.7854         0.428705   
     64. A(C  11,C  10,C  16)          119.0190         0.422769   
     65. A(N   9,C  10,C  16)          120.1955         0.419597   
     66. A(C  10,C  11,C  12)          119.6389         0.431259   
     67. A(C  12,C  11,H  26)          120.1423         0.353062   
     68. A(C  10,C  11,H  26)          120.2188         0.353607   
     69. A(Cl 13,C  12,C  14)          120.1836         0.411123   
     70. A(C  11,C  12,C  14)          119.6406         0.429951   
     71. A(C  11,C  12,Cl 13)          120.1758         0.411693   
     72. A(C  12,C  14,H  27)          120.1384         0.352850   
     73. A(N  15,C  14,H  27)          119.4822         0.352821   
     74. A(C  12,C  14,N  15)          120.3794         0.429310   
     75. A(C  14,N  15,C  16)          121.5616         0.429802   
     76. A(N  15,C  16,N  17)          120.1521         0.427963   
     77. A(C  10,C  16,N  17)          120.0873         0.419662   
     78. A(C  10,C  16,N  15)          119.7605         0.421973   
     79. A(C  16,N  17,C  18)          118.2035         0.428671   
     80. A(N   1,C  18,C   8)          111.4929         0.440349   
     81. A(C   8,C  18,N  17)          121.4184         0.439161   
     82. A(N   1,C  18,N  17)          127.0848         0.432922   
     83. D(C   2,N   1,C   0,H  20)   -169.3589         0.015934   
     84. D(C  18,N   1,C   0,H  19)   -105.0273         0.015934   
     85. D(C  18,N   1,C   0,H  21)    134.8186         0.015934   
     86. D(C   2,N   1,C   0,H  21)    -49.7575         0.015934   
     87. D(C  18,N   1,C   0,H  20)     15.2172         0.015934   
     88. D(C   2,N   1,C   0,H  19)     70.3967         0.015934   
     89. D(C   7,C   2,N   1,C   0)   -176.9629         0.031896   
     90. D(C   3,C   2,N   1,C   0)      2.3258         0.031896   
     91. D(C   3,C   2,N   1,C  18)    178.5792         0.031896   
     92. D(C   7,C   2,N   1,C  18)     -0.7095         0.031896   
     93. D(H  22,C   3,C   2,C   7)    179.5848         0.025585   
     94. D(C   4,C   3,C   2,C   7)     -0.3376         0.025585   
     95. D(C   4,C   3,C   2,N   1)   -179.5658         0.025585   
     96. D(H  22,C   3,C   2,N   1)      0.3566         0.025585   
     97. D(C   5,C   4,C   3,C   2)      0.2047         0.023550   
     98. D(H  23,C   4,C   3,C   2)   -179.9167         0.023550   
     99. D(C   5,C   4,C   3,H  22)   -179.7184         0.023550   
    100. D(H  23,C   4,C   3,H  22)      0.1602         0.023550   
    101. D(H  24,C   5,C   4,H  23)     -0.0032         0.022556   
    102. D(H  24,C   5,C   4,C   3)    179.8754         0.022556   
    103. D(C   6,C   5,C   4,H  23)   -179.8059         0.022556   
    104. D(C   6,C   5,C   4,C   3)      0.0726         0.022556   
    105. D(H  25,C   6,C   5,H  24)     -0.1914         0.023805   
    106. D(H  25,C   6,C   5,C   4)    179.6114         0.023805   
    107. D(C   7,C   6,C   5,H  24)    179.9806         0.023805   
    108. D(C   7,C   6,C   5,C   4)     -0.2166         0.023805   
    109. D(C   8,C   7,C   2,C   3)   -178.9133         0.027919   
    110. D(C   8,C   7,C   2,N   1)      0.4326         0.027919   
    111. D(C   6,C   7,C   2,C   3)      0.1973         0.027919   
    112. D(C   2,C   7,C   6,C   5)      0.0853         0.026694   
    113. D(C   6,C   7,C   2,N   1)    179.5432         0.027919   
    114. D(C   8,C   7,C   6,H  25)     -0.8947         0.026694   
    115. D(C   8,C   7,C   6,C   5)    178.9330         0.026694   
    116. D(C   2,C   7,C   6,H  25)   -179.7424         0.026694   
    117. D(C  18,C   8,C   7,C   6)   -178.9608         0.031067   
    118. D(N   9,C   8,C   7,C   6)     -0.2413         0.031067   
    119. D(C  18,C   8,C   7,C   2)      0.0285         0.031067   
    120. D(N   9,C   8,C   7,C   2)    178.7480         0.031067   
    121. D(C  10,N   9,C   8,C  18)     -0.2646         0.030043   
    122. D(C  10,N   9,C   8,C   7)   -178.8150         0.030043   
    123. D(C  16,C  10,N   9,C   8)      0.2941         0.027068   
    124. D(C  11,C  10,N   9,C   8)   -179.8542         0.027068   
    125. D(H  26,C  11,C  10,C  16)    179.9579         0.025850   
    126. D(H  26,C  11,C  10,N   9)      0.1044         0.025850   
    127. D(C  12,C  11,C  10,C  16)     -0.0356         0.025850   
    128. D(C  12,C  11,C  10,N   9)   -179.8891         0.025850   
    129. D(C  14,C  12,C  11,H  26)   -179.9629         0.025357   
    130. D(C  14,C  12,C  11,C  10)      0.0306         0.025357   
    131. D(Cl 13,C  12,C  11,H  26)      0.0182         0.025357   
    132. D(Cl 13,C  12,C  11,C  10)   -179.9883         0.025357   
    133. D(H  27,C  14,C  12,Cl 13)      0.0030         0.024942   
    134. D(H  27,C  14,C  12,C  11)    179.9841         0.024942   
    135. D(N  15,C  14,C  12,Cl 13)   -179.9814         0.024942   
    136. D(N  15,C  14,C  12,C  11)     -0.0003         0.024942   
    137. D(C  16,N  15,C  14,H  27)    179.9902         0.028543   
    138. D(C  16,N  15,C  14,C  12)     -0.0254         0.028543   
    139. D(N  17,C  16,N  15,C  14)    179.9451         0.028968   
    140. D(C  10,C  16,N  15,C  14)      0.0199         0.028968   
    141. D(N  17,C  16,C  10,C  11)   -179.9144         0.020113   
    142. D(N  17,C  16,C  10,N   9)     -0.0600         0.020113   
    143. D(N  15,C  16,C  10,C  11)      0.0109         0.020113   
    144. D(N  15,C  16,C  10,N   9)    179.8652         0.020113   
    145. D(C  18,N  17,C  16,C  10)     -0.2133         0.027118   
    146. D(C  18,N  17,C  16,N  15)    179.8617         0.027118   
    147. D(C   8,C  18,N  17,C  16)      0.2519         0.029548   
    148. D(N   1,C  18,N  17,C  16)    179.4642         0.029548   
    149. D(N  17,C  18,C   8,N   9)     -0.0111         0.031531   
    150. D(N  17,C  18,C   8,C   7)    178.8405         0.031531   
    151. D(N   1,C  18,C   8,N   9)   -179.3357         0.031531   
    152. D(N   1,C  18,C   8,C   7)     -0.4841         0.031531   
    153. D(N  17,C  18,N   1,C   2)   -178.5484         0.033695   
    154. D(N  17,C  18,N   1,C   0)     -2.2894         0.033695   
    155. D(C   8,C  18,N   1,C   2)      0.7291         0.033695   
    156. D(C   8,C  18,N   1,C   0)    176.9881         0.033695   
    -----------------------------------------------------------------

Number of atoms                         .... 28
Number of degrees of freedom            .... 156

         *************************************************************
         *                GEOMETRY OPTIMIZATION CYCLE   1            *
         *************************************************************
      -----------------------------------------------------------      
     |                   =====================                   |     
     |                           x T B                           |     
     |                   =====================                   |     
     |                         S. Grimme                         |     
     |          Mulliken Center for Theoretical Chemistry        |     
     |                    University of Bonn                     |     
      -----------------------------------------------------------      

   * xtb version 6.2.3 (830e466) compiled by 'ehlert@majestix' on 2020-03-16

   xtb is free software: you can redistribute it and/or modify it under
   the terms of the GNU Lesser General Public License as published by
   the Free Software Foundation, either version 3 of the License, or
   (at your option) any later version.
   
   xtb is distributed in the hope that it will be useful,
   but WITHOUT ANY WARRANTY; without even the implied warranty of
   MERCHANTABILITY or FITNESS FOR A PARTICULAR PURPOSE.  See the
   GNU Lesser General Public License for more details.
   
   Cite this work as:
   * S. Grimme, C. Bannwarth, P. Shushkov, J. Chem. Theory Comput., 2017,
     13, 1989-2009. DOI: 10.1021/acs.jctc.7b00118
   * C. Bannwarth, S. Ehlert and S. Grimme., J. Chem. Theory Comput., 2019,
     15, 1652-1671. DOI: 10.1021/acs.jctc.8b01176
   * P. Pracht, E. Caldeweyher, S. Ehlert, S. Grimme, ChemRxiv, 2019, preprint.
     DOI: 10.26434/chemrxiv.8326202.v1
   
   for DFT-D4:
   * E. Caldeweyher, C. Bannwarth and S. Grimme, J. Chem. Phys., 2017,
     147, 034112. DOI: 10.1063/1.4993215
   * E. Caldeweyher, S. Ehlert, A. Hansen, H. Neugebauer, S. Spicher,
     C. Bannwarth and S. Grimme, J. Chem. Phys., 2019, 150, 154122.
     DOI: 10.1063/1.5090222
   
   for sTDA-xTB:
   * S. Grimme and C. Bannwarth, J. Chem. Phys., 2016, 145, 054103.
     DOI: 10.1063/1.4959605
   
   in the mass-spec context:
   * V. Asgeirsson, C. Bauer and S. Grimme, Chem. Sci., 2017, 8, 4879.
     DOI: 10.1039/c7sc00601b
   
   for metadynamics refer to:
   * S. Grimme, J. Chem. Theory Comput., 2019, 155, 2847-2862
     DOI: 10.1021/acs.jctc.9b00143
   
   with help from (in alphabetical order)
   C. Bannwarth, F. Bohle, G. Brandenburg, E. Caldeweyher, M. Checinski,
   S. Dohm, S. Ehlert, S. Ehrlich, F. März, H. Neugebauer, J. Pisarek,
   P. Pracht, P. Shushkov, and S. Spicher.
   
 * started run on 2026/01/18 at 23:59:53.203     

           -------------------------------------------------
          |                Calculation Setup                |
           -------------------------------------------------

          program call               : /appl/orca_4.2.1/orca_4_2_1_linux_x86-64_openmpi314/xtb pre_opt_XTB.xyz --grad -c 0 -u 0 -P 1 --namespace pre_opt
          hostname                   : cnode8
          calculation namespace      : pre_opt
          coordinate file            : pre_opt_XTB.xyz
          omp threads                :                     1
          number of atoms            :                    28
          number of electrons        :                    92
          charge                     :                     0
          spin                       :                   0.0
          first test random number   :      0.14574961196106

########################################################################
[WARNING] Please study the warnings concerning your input carefully
-2- prog_main: XTBPATH is not set, using XTBHOME instead
-1- prog_main: XTBHOME is not set, using HOME instead
########################################################################
           ------------------------------------------------- 
          |                 G F N 2 - x T B                 |
          | Geometry, Frequencies, Noncovalent interactions |
          |            JCTC 2019 parametrisation            |
           ------------------------------------------------- 
             k(s)              :                1.8500
             k(p)              :                2.2300
             k(d)              :                2.2300
             k(f)              :                2.0000
             kEN (H0ij)        :               -2.0000
             D4 a1             :                0.5200
             D4 a2             :                5.0000
             D4 s6             :                1.0000
             D4 s8             :                2.7000
             D4 s9             :                5.0000
             alphaj            :                2.0000

  Z AO/shell   Hii/eV     exponent
  1     Wed Apr 25 08:07:45 CEST 2018   EN: 2.200 GM2: 0.406  GM3: 0.0800  RAES: 1.40
     1s    -10.707211    1.230000
  6     Wed Apr 25 08:07:45 CEST 2018   EN: 2.550 GM2: 0.538  GM3: 0.1500  RAES: 3.00
     2s    -13.970922    2.096432
     2p    -10.063292    1.800000
  7     Wed Apr 25 08:07:45 CEST 2018   EN: 3.040 GM2: 0.461  GM3:-0.0640  RAES: 1.90
     2s    -16.686243    2.339881
     2p    -12.523956    2.014332
 17     Mon Apr 23 14:09:22 CEST 2018   EN: 3.160 GM2: 0.249  GM3: 0.1495  RAES: 2.50
     3s    -29.278781    2.485265
     3p    -12.673758    2.199650
     3d     -0.240338    2.476089

           ------------------------------------------------- 
          |        Self-Consistent Charge Iterations        |
           ------------------------------------------------- 

          ...................................................
          :                      SETUP                      :
          :.................................................:
          :  # basis functions                  91          :
          :  # atomic orbitals                  90          :
          :  # shells                           48          :
          :  # electrons                        92          :
          :  max. iterations                   250          :
          :  Hamiltonian                  GFN2-xTB          :
          :  restarted?                      false          :
          :  GBSA solvation                  false          :
          :  PC potential                    false          :
          :  electronic temp.          300.0000000     K    :
          :  accuracy                    1.0000000          :
          :  -> integral cutoff          0.2500000E+02      :
          :  -> integral neglect         0.1000000E-07      :
          :  -> SCF convergence          0.1000000E-05 Eh   :
          :  -> wf. convergence          0.1000000E-03 e    :
          :  Broyden damping             0.4000000          :
          ...................................................

 iter      E             dE          RMSdq      gap      omega  full diag
   1    -51.4631496 -0.514631E+02  0.473E+00    1.39       0.0  T
   2    -51.5353628 -0.722132E-01  0.307E+00    1.15       1.0  T
   3    -51.5341358  0.122702E-02  0.160E+00    1.05       1.0  T
   4    -51.5507111 -0.165753E-01  0.492E-01    0.89       1.0  T
   5    -51.5585408 -0.782974E-02  0.152E-01    0.89       1.0  T
   6    -51.5589001 -0.359305E-03  0.689E-02    0.90       1.0  T
   7    -51.5589324 -0.323399E-04  0.426E-02    0.90       1.0  T
   8    -51.5589429 -0.104854E-04  0.315E-02    0.90       1.0  T
   9    -51.5589512 -0.829754E-05  0.231E-02    0.90       1.0  T
  10    -51.5589563 -0.507572E-05  0.139E-02    0.90       1.4  T
  11    -51.5589595 -0.324739E-05  0.500E-03    0.90       3.8  T
  12    -51.5589597 -0.158687E-06  0.232E-03    0.90       8.1  T
  13    -51.5589598 -0.977454E-07  0.727E-04    0.90      26.0  T
  14    -51.5589598 -0.795649E-08  0.330E-04    0.90      57.3  T

   *** convergence criteria satisfied after 14 iterations ***

         #    Occupation            Energy/Eh            Energy/eV
      -------------------------------------------------------------
         1        2.0000           -1.0607578             -28.8647
       ...           ...                  ...                  ...
        40        2.0000           -0.4298128             -11.6958
        41        2.0000           -0.4168945             -11.3443
        42        2.0000           -0.4138785             -11.2622
        43        2.0000           -0.4057698             -11.0416
        44        2.0000           -0.3944498             -10.7335
        45        2.0000           -0.3888293             -10.5806
        46        2.0000           -0.3528620              -9.6019 (HOMO)
        47                         -0.3197051              -8.6996 (LUMO)
        48                         -0.2602982              -7.0831
        49                         -0.2456456              -6.6844
        50                         -0.2332341              -6.3466
        51                         -0.2166582              -5.8956
       ...                                ...                  ...
        90                          0.7631655              20.7668
      -------------------------------------------------------------
                  HL-Gap            0.0331569 Eh            0.9022 eV
             Fermi-level           -0.3362836 Eh           -9.1507 eV

 SCC (total)                   0 d,  0 h,  0 min,  0.061 sec
 SCC setup                      ...        0 min,  0.000 sec (  0.622%)
 Dispersion                     ...        0 min,  0.000 sec (  0.691%)
 integral evaluation            ...        0 min,  0.022 sec ( 36.048%)
 zeroth order Hamiltonian       ...        0 min,  0.000 sec (  0.443%)
 iterations                     ...        0 min,  0.021 sec ( 33.808%)
 molecular gradient             ...        0 min,  0.017 sec ( 28.112%)
 printout                       ...        0 min,  0.000 sec (  0.199%)

         :::::::::::::::::::::::::::::::::::::::::::::::::::::
         ::                     SUMMARY                     ::
         :::::::::::::::::::::::::::::::::::::::::::::::::::::
         :: total energy             -50.829444219136 Eh    ::
         :: gradient norm              0.179652352342 Eh/a0 ::
         :: HOMO-LUMO gap              0.902244115803 eV    ::
         ::.................................................::
         :: SCC energy               -51.558959814253 Eh    ::
         :: -> isotropic ES            0.032964772988 Eh    ::
         :: -> anisotropic ES          0.002318842610 Eh    ::
         :: -> anisotropic XC          0.038099548008 Eh    ::
         :: -> dispersion             -0.033886333641 Eh    ::
         :: repulsion energy           0.729753963830 Eh    ::
         :: add. restraining           0.000000000000 Eh    ::
         :::::::::::::::::::::::::::::::::::::::::::::::::::::

           -------------------------------------------------
          |                Property Printout                |
           -------------------------------------------------

    * Orbital Energies and Occupations

         #    Occupation            Energy/Eh            Energy/eV
      -------------------------------------------------------------
         1        2.0000           -1.0607578             -28.8647
       ...           ...                  ...                  ...
        34        2.0000           -0.4692080             -12.7678
        35        2.0000           -0.4678387             -12.7305
        36        2.0000           -0.4529658             -12.3258
        37        2.0000           -0.4432419             -12.0612
        38        2.0000           -0.4413113             -12.0087
        39        2.0000           -0.4412579             -12.0072
        40        2.0000           -0.4298128             -11.6958
        41        2.0000           -0.4168945             -11.3443
        42        2.0000           -0.4138785             -11.2622
        43        2.0000           -0.4057698             -11.0416
        44        2.0000           -0.3944498             -10.7335
        45        2.0000           -0.3888293             -10.5806
        46        2.0000           -0.3528620              -9.6019 (HOMO)
        47                         -0.3197051              -8.6996 (LUMO)
        48                         -0.2602982              -7.0831
        49                         -0.2456456              -6.6844
        50                         -0.2332341              -6.3466
        51                         -0.2166582              -5.8956
        52                         -0.1624401              -4.4202
        53                         -0.1544811              -4.2036
        54                         -0.1084238              -2.9504
        55                         -0.0772836              -2.1030
        56                         -0.0278044              -0.7566
        57                          0.0084953               0.2312
       ...                                ...                  ...
        90                          0.7631655              20.7668
      -------------------------------------------------------------
                  HL-Gap            0.0331569 Eh            0.9022 eV
             Fermi-level           -0.3362836 Eh           -9.1507 eV

     #   Z        covCN         q      C6AA      α(0)
     1   6 C      3.677    -0.049    21.692     6.673
     2   7 N      2.812    -0.035    21.922     6.954
     3   6 C      3.260     0.053    25.689     8.190
     4   6 C      2.908    -0.052    29.299     8.876
     5   6 C      2.910    -0.027    28.672     8.780
     6   6 C      2.912    -0.039    28.975     8.827
     7   6 C      2.907    -0.023    28.590     8.768
     8   6 C      3.148    -0.018    28.178     8.684
     9   6 C      3.111     0.076    26.157     8.379
    10   7 N      1.839    -0.245    27.235     7.734
    11   6 C      2.932     0.072    26.389     8.425
    12   6 C      2.940    -0.030    28.741     8.793
    13   6 C      2.870     0.083    26.141     8.381
    14  17 Cl     0.939    -0.169   104.448    15.635
    15   6 C      2.876     0.052    26.828     8.491
    16   7 N      1.836    -0.219    26.620     7.646
    17   6 C      2.874     0.157    24.611     8.132
    18   7 N      1.838    -0.264    27.706     7.801
    19   6 C      3.200     0.135    24.539     8.073
    20   1 H      0.922     0.061     2.188     2.313
    21   1 H      0.922     0.086     1.920     2.167
    22   1 H      0.922     0.062     2.177     2.307
    23   1 H      0.925     0.038     2.477     2.461
    24   1 H      0.925     0.044     2.401     2.423
    25   1 H      0.925     0.042     2.425     2.435
    26   1 H      0.925     0.057     2.231     2.336
    27   1 H      0.925     0.077     2.012     2.218
    28   1 H      0.925     0.076     2.024     2.225

 Mol. C6AA /au·bohr⁶  :      13490.976207
 Mol. C8AA /au·bohr⁸  :     355848.323162
 Mol. α(0) /au        :        184.124558


Wiberg/Mayer (AO) data.
largest (>0.10) Wiberg bond orders for each atom
          total WBO             WBO to atom ...
     1  C   3.960        N    2 0.990    H   21 0.978    H   22 0.977    H   20 0.974
     2  N   3.577        C   19 1.196    C    3 1.132    C    1 0.990
     3  C   3.951        C    4 1.357    C    8 1.259    N    2 1.132
     4  C   3.982        C    5 1.454    C    3 1.357    H   23 0.969    C    7 0.109
     5  C   3.967        C    4 1.454    C    6 1.404    H   24 0.972
     6  C   3.981        C    7 1.468    C    5 1.404    H   25 0.972
     7  C   3.976        C    6 1.468    C    8 1.346    H   26 0.968    C    4 0.109
     8  C   3.984        C    7 1.346    C    3 1.259    C    9 1.173
     9  C   3.983        N   10 1.413    C    8 1.173    C   19 1.172
    10  N   3.041        C    9 1.413    C   11 1.304    N   18 0.107
    11  C   3.975        N   10 1.304    C   12 1.301    C   17 1.176
    12  C   3.970        C   13 1.466    C   11 1.301    H   27 0.962    N   16 0.113
    13  C   3.905        C   12 1.466    C   15 1.325    Cl  14 0.971
    14  Cl  1.107        C   13 0.971
    15  C   3.958        N   16 1.497    C   13 1.325    H   28 0.960
    16  N   3.058        C   15 1.497    C   17 1.298    C   12 0.113
    17  C   3.966        N   18 1.307    N   16 1.298    C   11 1.176
    18  N   3.029        C   19 1.386    C   17 1.307    N   10 0.107
    19  C   3.963        N   18 1.386    N    2 1.196    C    9 1.172
    20  H   0.994        C    1 0.974
    21  H   0.992        C    1 0.978
    22  H   0.995        C    1 0.977
    23  H   0.998        C    4 0.969
    24  H   0.998        C    5 0.972
    25  H   0.998        C    6 0.972
    26  H   0.996        C    7 0.968
    27  H   0.994        C   12 0.962
    28  H   0.994        C   15 0.960

molecular dipole:
                 x           y           z       tot (Debye)
 q only:       -2.089      -0.495      -0.063
   full:       -1.814      -0.104      -0.057       4.622
molecular quadrupole (traceless):
                xx          xy          yy          xz          yz          zz
 q only:       -6.774      -0.068       6.734      -0.072       0.106       0.040
  q+dip:        3.698       6.457       1.549       0.474       0.186      -5.246
   full:        1.293       6.975      -1.810       0.260       0.079       0.517


           -------------------------------------------------
          | TOTAL ENERGY              -50.829444219136 Eh   |
          | GRADIENT NORM               0.179652352342 Eh/α |
          | HOMO-LUMO GAP               0.902244115803 eV   |
           -------------------------------------------------

------------------------------------------------------------------------
 * finished run on 2026/01/18 at 23:59:53.405     
------------------------------------------------------------------------
 total:
 * wall-time:     0 d,  0 h,  0 min,  0.202 sec
 *  cpu-time:     0 d,  0 h,  0 min,  0.096 sec
 * ratio c/w:     0.477 speedup
 SCF:
 * wall-time:     0 d,  0 h,  0 min,  0.062 sec
 *  cpu-time:     0 d,  0 h,  0 min,  0.061 sec
 * ratio c/w:     0.998 speedup


-------------------------   --------------------
FINAL SINGLE POINT ENERGY         0.000000000000
-------------------------   --------------------

------------------------------------------------------------------------------
                         ORCA GEOMETRY RELAXATION STEP
------------------------------------------------------------------------------

Reading the OPT-File                    .... done
Getting information on internals        .... done
Copying old internal coords+grads       .... done
Making the new internal coordinates     .... (new redundants).... done
Validating the new internal coordinates .... (new redundants).... done
Calculating the B-matrix                .... done
Calculating the G,G- and P matrices     .... done
Transforming gradient to internals      .... done
Projecting the internal gradient        .... done
Number of atoms                         ....  28
Number of internal coordinates          .... 156
Current Energy                          ....     0.000000000 Eh
Current gradient norm                   ....     0.179652352 Eh/bohr
Maximum allowed component of the step   ....  0.300
Current trust radius                    ....  0.300
Evaluating the initial hessian          ....  (Almloef) done
Projecting the Hessian                  .... done
Forming the augmented Hessian           .... done
Diagonalizing the augmented Hessian     .... done
Last element of RFO vector              ....  0.970211128
Lowest eigenvalues of augmented Hessian:
 -0.036282361  0.015941495  0.022975853  0.023291241  0.023352840
Length of the computed step             ....  0.249699207
The final length of the internal step   ....  0.249699207
Converting the step to cartesian space:
 Initial RMS(Int)=    0.0199919365
Transforming coordinates:
 Iter   0:  RMS(Cart)=    0.0682558313 RMS(Int)=    1.0062155421
 Iter   1:  RMS(Cart)=    0.0010735948 RMS(Int)=    0.0004044025
 Iter   2:  RMS(Cart)=    0.0000233146 RMS(Int)=    0.0000107514
 Iter   3:  RMS(Cart)=    0.0000007106 RMS(Int)=    0.0000002581
 Iter   4:  RMS(Cart)=    0.0000000207 RMS(Int)=    0.0000000112
done
Storing new coordinates                 .... done

                                .--------------------.
          ----------------------|Geometry convergence|-------------------------
          Item                value                   Tolerance       Converged
          ---------------------------------------------------------------------
          RMS gradient        0.0118783671            0.0001000000      NO
          MAX gradient        0.0544222222            0.0003000000      NO
          RMS step            0.0199919365            0.0020000000      NO
          MAX step            0.0839625848            0.0040000000      NO
          ........................................................
          Max(Bonds)      0.0444      Max(Angles)    2.52
          Max(Dihed)        0.67      Max(Improp)    0.00
          ---------------------------------------------------------------------

The optimization has not yet converged - more geometry cycles are needed


    ---------------------------------------------------------------------------
                         Redundant Internal Coordinates
                            (Angstroem and degrees)

        Definition                    Value    dE/dq     Step     New-Value
    ----------------------------------------------------------------------------
     1. B(N   1,C   0)                1.4603  0.019804 -0.0224    1.4379   
     2. B(C   2,N   1)                1.3590 -0.027811  0.0206    1.3796   
     3. B(C   3,C   2)                1.3971  0.008747 -0.0069    1.3902   
     4. B(C   4,C   3)                1.4078  0.020259 -0.0179    1.3899   
     5. B(C   5,C   4)                1.4134  0.016182 -0.0150    1.3984   
     6. B(C   6,C   5)                1.4064  0.021534 -0.0186    1.3879   
     7. B(C   7,C   2)                1.3859 -0.024288  0.0199    1.4058   
     8. B(C   7,C   6)                1.3916  0.001702 -0.0008    1.3909   
     9. B(C   8,C   7)                1.3723 -0.053561  0.0418    1.4141   
    10. B(N   9,C   8)                1.3541  0.038987 -0.0300    1.3241   
    11. B(C  10,N   9)                1.3673  0.020639 -0.0172    1.3502   
    12. B(C  11,C  10)                1.3958  0.002565 -0.0012    1.3946   
    13. B(C  12,C  11)                1.3982  0.025048 -0.0203    1.3780   
    14. B(Cl 13,C  12)                1.7540  0.011704 -0.0153    1.7387   
    15. B(C  14,C  12)                1.4004 -0.001562  0.0008    1.4011   
    16. B(N  15,C  14)                1.3606  0.054309 -0.0444    1.3161   
    17. B(C  16,N  15)                1.3587  0.023546 -0.0191    1.3396   
    18. B(C  16,C  10)                1.4285 -0.012572  0.0112    1.4397   
    19. B(N  17,C  16)                1.3671  0.030553 -0.0256    1.3415   
    20. B(C  18,N  17)                1.3562  0.039812 -0.0312    1.3250   
    21. B(C  18,C   8)                1.3704 -0.054422  0.0424    1.4128   
    22. B(C  18,N   1)                1.3521 -0.007045  0.0046    1.3568   
    23. B(H  19,C   0)                1.1100  0.010898 -0.0155    1.0944   
    24. B(H  20,C   0)                1.1105  0.014605 -0.0209    1.0896   
    25. B(H  21,C   0)                1.1102  0.011922 -0.0170    1.0932   
    26. B(H  22,C   3)                1.0820  0.002663 -0.0035    1.0786   
    27. B(H  23,C   4)                1.0822  0.003032 -0.0039    1.0783   
    28. B(H  24,C   5)                1.0822  0.002906 -0.0038    1.0784   
    29. B(H  25,C   6)                1.0824  0.004041 -0.0053    1.0771   
    30. B(H  26,C  11)                1.0832  0.002600 -0.0034    1.0798   
    31. B(H  27,C  14)                1.0820  0.003881 -0.0050    1.0769   
    32. A(H  20,C   0,H  21)          108.38 -0.003838    0.62    109.00   
    33. A(H  19,C   0,H  21)          109.37  0.000079    0.11    109.48   
    34. A(N   1,C   0,H  20)          110.61  0.007912   -1.33    109.28   
    35. A(N   1,C   0,H  19)          109.55 -0.002581    0.41    109.96   
    36. A(N   1,C   0,H  21)          109.85  0.000282   -0.02    109.83   
    37. A(H  19,C   0,H  20)          109.05 -0.001925    0.23    109.28   
    38. A(C   0,N   1,C  18)          127.58  0.011171   -1.25    126.33   
    39. A(C   2,N   1,C  18)          104.62 -0.018483    2.01    106.63   
    40. A(C   0,N   1,C   2)          127.69  0.007303   -0.75    126.94   
    41. A(C   3,C   2,C   7)          120.84  0.004144   -0.25    120.59   
    42. A(N   1,C   2,C   7)          111.31  0.002097   -0.51    110.79   
    43. A(N   1,C   2,C   3)          127.85 -0.006244    0.77    128.62   
    44. A(C   2,C   3,C   4)          118.00  0.000692   -0.15    117.85   
    45. A(C   4,C   3,H  22)          120.61  0.000025    0.02    120.63   
    46. A(C   2,C   3,H  22)          121.39 -0.000717    0.13    121.52   
    47. A(C   3,C   4,C   5)          120.67 -0.007654    0.76    121.43   
    48. A(C   3,C   4,H  23)          119.65  0.003938   -0.40    119.25   
    49. A(C   5,C   4,H  23)          119.68  0.003716   -0.36    119.31   
    50. A(C   4,C   5,C   6)          120.58 -0.004677    0.42    121.00   
    51. A(C   4,C   5,H  24)          119.73  0.003064   -0.32    119.41   
    52. A(C   6,C   5,H  24)          119.69  0.001612   -0.10    119.59   
    53. A(C   5,C   6,H  25)          121.14 -0.000963    0.13    121.27   
    54. A(C   7,C   6,H  25)          121.32  0.001867   -0.29    121.03   
    55. A(C   5,C   6,C   7)          117.54 -0.000904    0.16    117.70   
    56. A(C   6,C   7,C   8)          131.99 -0.010864    1.07    133.06   
    57. A(C   2,C   7,C   8)          105.64  0.002463   -0.13    105.51   
    58. A(C   2,C   7,C   6)          122.37  0.008398   -0.94    121.43   
    59. A(N   9,C   8,C  18)          122.33  0.000181    0.00    122.33   
    60. A(C   7,C   8,C  18)          106.94  0.005189   -0.31    106.63   
    61. A(C   7,C   8,N   9)          130.72 -0.005376    0.31    131.04   
    62. A(C   8,N   9,C  10)          117.77  0.018687   -2.14    115.63   
    63. A(N   9,C  10,C  11)          120.79  0.006517   -0.87    119.91   
    64. A(C  11,C  10,C  16)          119.02  0.007672   -0.71    118.31   
    65. A(N   9,C  10,C  16)          120.20 -0.014189    1.58    121.77   
    66. A(C  10,C  11,C  12)          119.64  0.010898   -1.22    118.42   
    67. A(C  12,C  11,H  26)          120.14 -0.007224    0.87    121.01   
    68. A(C  10,C  11,H  26)          120.22 -0.003674    0.35    120.57   
    69. A(Cl 13,C  12,C  14)          120.18  0.001660   -0.19    119.99   
    70. A(C  11,C  12,C  14)          119.64 -0.003540    0.41    120.05   
    71. A(C  11,C  12,Cl 13)          120.18  0.001880   -0.22    119.96   
    72. A(C  12,C  14,H  27)          120.14  0.000544    0.16    120.30   
    73. A(N  15,C  14,H  27)          119.48  0.014052   -1.83    117.66   
    74. A(C  12,C  14,N  15)          120.38 -0.014596    1.67    122.04   
    75. A(C  14,N  15,C  16)          121.56  0.008663   -1.36    120.20   
    76. A(N  15,C  16,N  17)          120.15  0.020113   -2.43    117.72   
    77. A(C  10,C  16,N  17)          120.09 -0.011017    1.22    121.31   
    78. A(C  10,C  16,N  15)          119.76 -0.009096    1.21    120.97   
    79. A(C  16,N  17,C  18)          118.20  0.020445   -2.52    115.69   
    80. A(N   1,C  18,C   8)          111.49  0.008735   -1.06    110.43   
    81. A(C   8,C  18,N  17)          121.42 -0.014107    1.85    123.27   
    82. A(N   1,C  18,N  17)          127.08  0.005367   -0.79    126.29   
    83. D(C   2,N   1,C   0,H  20)   -169.36 -0.000025   -0.14   -169.49   
    84. D(C  18,N   1,C   0,H  19)   -105.03 -0.000029   -0.29   -105.31   
    85. D(C  18,N   1,C   0,H  21)    134.82  0.001310   -0.67    134.15   
    86. D(C   2,N   1,C   0,H  21)    -49.76  0.000372   -0.22    -49.98   
    87. D(C  18,N   1,C   0,H  20)     15.22  0.000913   -0.58     14.63   
    88. D(C   2,N   1,C   0,H  19)     70.40 -0.000966    0.16     70.56   
    89. D(C   7,C   2,N   1,C   0)   -176.96  0.000109   -0.29   -177.25   
    90. D(C   3,C   2,N   1,C   0)      2.33 -0.000099   -0.11      2.22   
    91. D(C   3,C   2,N   1,C  18)    178.58  0.000012    0.16    178.74   
    92. D(C   7,C   2,N   1,C  18)     -0.71  0.000220   -0.02     -0.73   
    93. D(H  22,C   3,C   2,C   7)    179.58 -0.000029    0.01    179.60   
    94. D(C   4,C   3,C   2,C   7)     -0.34 -0.000025    0.03     -0.30   
    95. D(C   4,C   3,C   2,N   1)   -179.57  0.000222   -0.16   -179.73   
    96. D(H  22,C   3,C   2,N   1)      0.36  0.000218   -0.18      0.18   
    97. D(C   5,C   4,C   3,C   2)      0.20  0.000010   -0.03      0.18   
    98. D(H  23,C   4,C   3,C   2)   -179.92  0.000015   -0.04   -179.95   
    99. D(C   5,C   4,C   3,H  22)   -179.72  0.000014   -0.01   -179.73   
   100. D(H  23,C   4,C   3,H  22)      0.16  0.000020   -0.02      0.14   
   101. D(H  24,C   5,C   4,H  23)     -0.00 -0.000023    0.02      0.02   
   102. D(H  24,C   5,C   4,C   3)    179.88 -0.000017    0.01    179.89   
   103. D(C   6,C   5,C   4,H  23)   -179.81 -0.000006   -0.01   -179.82   
   104. D(C   6,C   5,C   4,C   3)      0.07 -0.000001   -0.02      0.05   
   105. D(H  25,C   6,C   5,H  24)     -0.19 -0.000051    0.06     -0.13   
   106. D(H  25,C   6,C   5,C   4)    179.61 -0.000064    0.10    179.71   
   107. D(C   7,C   6,C   5,H  24)    179.98 -0.000041    0.03    180.01   
   108. D(C   7,C   6,C   5,C   4)     -0.22 -0.000055    0.06     -0.15   
   109. D(C   8,C   7,C   2,C   3)   -178.91  0.000252   -0.16   -179.07   
   110. D(C   8,C   7,C   2,N   1)      0.43 -0.000023    0.01      0.45   
   111. D(C   6,C   7,C   2,C   3)      0.20 -0.000036    0.01      0.21   
   112. D(C   2,C   7,C   6,C   5)      0.09  0.000086   -0.06      0.03   
   113. D(C   6,C   7,C   2,N   1)    179.54 -0.000311    0.18    179.73   
   114. D(C   8,C   7,C   6,H  25)     -0.89 -0.000062    0.11     -0.79   
   115. D(C   8,C   7,C   6,C   5)    178.93 -0.000077    0.14    179.07   
   116. D(C   2,C   7,C   6,H  25)   -179.74  0.000101   -0.09   -179.84   
   117. D(C  18,C   8,C   7,C   6)   -178.96  0.000115   -0.19   -179.15   
   118. D(N   9,C   8,C   7,C   6)     -0.24 -0.000117    0.08     -0.16   
   119. D(C  18,C   8,C   7,C   2)      0.03  0.000054   -0.03      0.00   
   120. D(N   9,C   8,C   7,C   2)    178.75 -0.000178    0.25    179.00   
   121. D(C  10,N   9,C   8,C  18)     -0.26 -0.000003   -0.01     -0.28   
   122. D(C  10,N   9,C   8,C   7)   -178.82  0.000222   -0.32   -179.14   
   123. D(C  16,C  10,N   9,C   8)      0.29  0.000006   -0.04      0.26   
   124. D(C  11,C  10,N   9,C   8)   -179.85  0.000036   -0.03   -179.89   
   125. D(H  26,C  11,C  10,C  16)    179.96 -0.000043    0.04    180.00   
   126. D(H  26,C  11,C  10,N   9)      0.10 -0.000041    0.03      0.14   
   127. D(C  12,C  11,C  10,C  16)     -0.04 -0.000017    0.01     -0.02   
   128. D(C  12,C  11,C  10,N   9)   -179.89 -0.000015    0.00   -179.88   
   129. D(C  14,C  12,C  11,H  26)   -179.96  0.000043   -0.04   -180.01   
   130. D(C  14,C  12,C  11,C  10)      0.03  0.000017   -0.02      0.01   
   131. D(Cl 13,C  12,C  11,H  26)      0.02 -0.000002   -0.00      0.02   
   132. D(Cl 13,C  12,C  11,C  10)   -179.99 -0.000028    0.03   -179.96   
   133. D(H  27,C  14,C  12,Cl 13)      0.00  0.000003   -0.00     -0.00   
   134. D(H  27,C  14,C  12,C  11)    179.98 -0.000042    0.04    180.02   
   135. D(N  15,C  14,C  12,Cl 13)   -179.98  0.000037   -0.03   -180.02   
   136. D(N  15,C  14,C  12,C  11)     -0.00 -0.000008    0.01      0.01   
   137. D(C  16,N  15,C  14,H  27)    179.99  0.000029   -0.03    179.96   
   138. D(C  16,N  15,C  14,C  12)     -0.03 -0.000006    0.00     -0.02   
   139. D(N  17,C  16,N  15,C  14)    179.95  0.000050   -0.06    179.89   
   140. D(C  10,C  16,N  15,C  14)      0.02  0.000013   -0.01      0.01   
   141. D(N  17,C  16,C  10,C  11)   -179.91 -0.000062    0.05   -179.86   
   142. D(N  17,C  16,C  10,N   9)     -0.06 -0.000033    0.06     -0.00   
   143. D(N  15,C  16,C  10,C  11)      0.01 -0.000002    0.00      0.01   
   144. D(N  15,C  16,C  10,N   9)    179.87  0.000027    0.00    179.87   
   145. D(C  18,N  17,C  16,C  10)     -0.21  0.000043   -0.02     -0.24   
   146. D(C  18,N  17,C  16,N  15)    179.86  0.000005    0.03    179.89   
   147. D(C   8,C  18,N  17,C  16)      0.25 -0.000013   -0.03      0.22   
   148. D(N   1,C  18,N  17,C  16)    179.46 -0.000356    0.29    179.75   
   149. D(N  17,C  18,C   8,N   9)     -0.01 -0.000010    0.05      0.04   
   150. D(N  17,C  18,C   8,C   7)    178.84 -0.000313    0.30    179.14   
   151. D(N   1,C  18,C   8,N   9)   -179.34  0.000276   -0.22   -179.56   
   152. D(N   1,C  18,C   8,C   7)     -0.48 -0.000026    0.03     -0.45   
   153. D(N  17,C  18,N   1,C   2)   -178.55  0.000360   -0.32   -178.87   
   154. D(N  17,C  18,N   1,C   0)     -2.29  0.000278   -0.03     -2.32   
   155. D(C   8,C  18,N   1,C   2)      0.73 -0.000107   -0.01      0.72   
   156. D(C   8,C  18,N   1,C   0)    176.99 -0.000189    0.29    177.28   
    ----------------------------------------------------------------------------

         *************************************************************
         *                GEOMETRY OPTIMIZATION CYCLE   2            *
         *************************************************************
      -----------------------------------------------------------      
     |                   =====================                   |     
     |                           x T B                           |     
     |                   =====================                   |     
     |                         S. Grimme                         |     
     |          Mulliken Center for Theoretical Chemistry        |     
     |                    University of Bonn                     |     
      -----------------------------------------------------------      

   * xtb version 6.2.3 (830e466) compiled by 'ehlert@majestix' on 2020-03-16

   xtb is free software: you can redistribute it and/or modify it under
   the terms of the GNU Lesser General Public License as published by
   the Free Software Foundation, either version 3 of the License, or
   (at your option) any later version.
   
   xtb is distributed in the hope that it will be useful,
   but WITHOUT ANY WARRANTY; without even the implied warranty of
   MERCHANTABILITY or FITNESS FOR A PARTICULAR PURPOSE.  See the
   GNU Lesser General Public License for more details.
   
   Cite this work as:
   * S. Grimme, C. Bannwarth, P. Shushkov, J. Chem. Theory Comput., 2017,
     13, 1989-2009. DOI: 10.1021/acs.jctc.7b00118
   * C. Bannwarth, S. Ehlert and S. Grimme., J. Chem. Theory Comput., 2019,
     15, 1652-1671. DOI: 10.1021/acs.jctc.8b01176
   * P. Pracht, E. Caldeweyher, S. Ehlert, S. Grimme, ChemRxiv, 2019, preprint.
     DOI: 10.26434/chemrxiv.8326202.v1
   
   for DFT-D4:
   * E. Caldeweyher, C. Bannwarth and S. Grimme, J. Chem. Phys., 2017,
     147, 034112. DOI: 10.1063/1.4993215
   * E. Caldeweyher, S. Ehlert, A. Hansen, H. Neugebauer, S. Spicher,
     C. Bannwarth and S. Grimme, J. Chem. Phys., 2019, 150, 154122.
     DOI: 10.1063/1.5090222
   
   for sTDA-xTB:
   * S. Grimme and C. Bannwarth, J. Chem. Phys., 2016, 145, 054103.
     DOI: 10.1063/1.4959605
   
   in the mass-spec context:
   * V. Asgeirsson, C. Bauer and S. Grimme, Chem. Sci., 2017, 8, 4879.
     DOI: 10.1039/c7sc00601b
   
   for metadynamics refer to:
   * S. Grimme, J. Chem. Theory Comput., 2019, 155, 2847-2862
     DOI: 10.1021/acs.jctc.9b00143
   
   with help from (in alphabetical order)
   C. Bannwarth, F. Bohle, G. Brandenburg, E. Caldeweyher, M. Checinski,
   S. Dohm, S. Ehlert, S. Ehrlich, F. März, H. Neugebauer, J. Pisarek,
   P. Pracht, P. Shushkov, and S. Spicher.
   
 * started run on 2026/01/18 at 23:59:54.300     

           -------------------------------------------------
          |                Calculation Setup                |
           -------------------------------------------------

          program call               : /appl/orca_4.2.1/orca_4_2_1_linux_x86-64_openmpi314/xtb pre_opt_XTB.xyz --grad -c 0 -u 0 -P 1 --namespace pre_opt
          hostname                   : cnode8
          calculation namespace      : pre_opt
          coordinate file            : pre_opt_XTB.xyz
          omp threads                :                     1
          number of atoms            :                    28
          number of electrons        :                    92
          charge                     :                     0
          spin                       :                   0.0
          first test random number   :      0.89836260320657

########################################################################
[WARNING] Please study the warnings concerning your input carefully
-2- prog_main: XTBPATH is not set, using XTBHOME instead
-1- prog_main: XTBHOME is not set, using HOME instead
########################################################################
           ------------------------------------------------- 
          |                 G F N 2 - x T B                 |
          | Geometry, Frequencies, Noncovalent interactions |
          |            JCTC 2019 parametrisation            |
           ------------------------------------------------- 
             k(s)              :                1.8500
             k(p)              :                2.2300
             k(d)              :                2.2300
             k(f)              :                2.0000
             kEN (H0ij)        :               -2.0000
             D4 a1             :                0.5200
             D4 a2             :                5.0000
             D4 s6             :                1.0000
             D4 s8             :                2.7000
             D4 s9             :                5.0000
             alphaj            :                2.0000

  Z AO/shell   Hii/eV     exponent
  1     Wed Apr 25 08:07:45 CEST 2018   EN: 2.200 GM2: 0.406  GM3: 0.0800  RAES: 1.40
     1s    -10.707211    1.230000
  6     Wed Apr 25 08:07:45 CEST 2018   EN: 2.550 GM2: 0.538  GM3: 0.1500  RAES: 3.00
     2s    -13.970922    2.096432
     2p    -10.063292    1.800000
  7     Wed Apr 25 08:07:45 CEST 2018   EN: 3.040 GM2: 0.461  GM3:-0.0640  RAES: 1.90
     2s    -16.686243    2.339881
     2p    -12.523956    2.014332
 17     Mon Apr 23 14:09:22 CEST 2018   EN: 3.160 GM2: 0.249  GM3: 0.1495  RAES: 2.50
     3s    -29.278781    2.485265
     3p    -12.673758    2.199650
     3d     -0.240338    2.476089

           ------------------------------------------------- 
          |        Self-Consistent Charge Iterations        |
           ------------------------------------------------- 

          ...................................................
          :                      SETUP                      :
          :.................................................:
          :  # basis functions                  91          :
          :  # atomic orbitals                  90          :
          :  # shells                           48          :
          :  # electrons                        92          :
          :  max. iterations                   250          :
          :  Hamiltonian                  GFN2-xTB          :
          :  restarted?                      false          :
          :  GBSA solvation                  false          :
          :  PC potential                    false          :
          :  electronic temp.          300.0000000     K    :
          :  accuracy                    1.0000000          :
          :  -> integral cutoff          0.2500000E+02      :
          :  -> integral neglect         0.1000000E-07      :
          :  -> SCF convergence          0.1000000E-05 Eh   :
          :  -> wf. convergence          0.1000000E-03 e    :
          :  Broyden damping             0.4000000          :
          ...................................................

 iter      E             dE          RMSdq      gap      omega  full diag
   1    -51.5163890 -0.515164E+02  0.468E+00    1.56       0.0  T
   2    -51.5895508 -0.731619E-01  0.306E+00    1.36       1.0  T
   3    -51.5897103 -0.159467E-03  0.159E+00    1.26       1.0  T
   4    -51.6053574 -0.156471E-01  0.480E-01    1.11       1.0  T
   5    -51.6129790 -0.762154E-02  0.139E-01    1.11       1.0  T
   6    -51.6132778 -0.298796E-03  0.593E-02    1.12       1.0  T
   7    -51.6133070 -0.292262E-04  0.334E-02    1.12       1.0  T
   8    -51.6133131 -0.608806E-05  0.225E-02    1.12       1.0  T
   9    -51.6133169 -0.378213E-05  0.167E-02    1.12       1.1  T
  10    -51.6133198 -0.294809E-05  0.978E-03    1.12       1.9  T
  11    -51.6133212 -0.138176E-05  0.423E-03    1.12       4.5  T
  12    -51.6133214 -0.172742E-06  0.209E-03    1.12       9.1  T
  13    -51.6133214 -0.600624E-07  0.585E-04    1.12      32.3  T
  14    -51.6133214 -0.449855E-08  0.228E-04    1.12      82.8  T

   *** convergence criteria satisfied after 14 iterations ***

         #    Occupation            Energy/Eh            Energy/eV
      -------------------------------------------------------------
         1        2.0000           -1.0607742             -28.8651
       ...           ...                  ...                  ...
        40        2.0000           -0.4297829             -11.6950
        41        2.0000           -0.4247982             -11.5593
        42        2.0000           -0.4154464             -11.3049
        43        2.0000           -0.4056914             -11.0394
        44        2.0000           -0.3954101             -10.7597
        45        2.0000           -0.3881450             -10.5620
        46        2.0000           -0.3542640              -9.6400 (HOMO)
        47                         -0.3130156              -8.5176 (LUMO)
        48                         -0.2592831              -7.0555
        49                         -0.2406881              -6.5495
        50                         -0.2305636              -6.2740
        51                         -0.2142248              -5.8294
       ...                                ...                  ...
        90                          0.7237945              19.6954
      -------------------------------------------------------------
                  HL-Gap            0.0412484 Eh            1.1224 eV
             Fermi-level           -0.3336398 Eh           -9.0788 eV

 SCC (total)                   0 d,  0 h,  0 min,  0.080 sec
 SCC setup                      ...        0 min,  0.000 sec (  0.621%)
 Dispersion                     ...        0 min,  0.001 sec (  0.715%)
 integral evaluation            ...        0 min,  0.033 sec ( 41.776%)
 zeroth order Hamiltonian       ...        0 min,  0.000 sec (  0.485%)
 iterations                     ...        0 min,  0.025 sec ( 31.712%)
 molecular gradient             ...        0 min,  0.019 sec ( 24.471%)
 printout                       ...        0 min,  0.000 sec (  0.153%)

         :::::::::::::::::::::::::::::::::::::::::::::::::::::
         ::                     SUMMARY                     ::
         :::::::::::::::::::::::::::::::::::::::::::::::::::::
         :: total energy             -50.852566333513 Eh    ::
         :: gradient norm              0.065069327931 Eh/a0 ::
         :: HOMO-LUMO gap              1.122426692115 eV    ::
         ::.................................................::
         :: SCC energy               -51.613321445794 Eh    ::
         :: -> isotropic ES            0.030973464813 Eh    ::
         :: -> anisotropic ES          0.001946144343 Eh    ::
         :: -> anisotropic XC          0.036238083989 Eh    ::
         :: -> dispersion             -0.034231484307 Eh    ::
         :: repulsion energy           0.760988952522 Eh    ::
         :: add. restraining           0.000000000000 Eh    ::
         :::::::::::::::::::::::::::::::::::::::::::::::::::::

           -------------------------------------------------
          |                Property Printout                |
           -------------------------------------------------

    * Orbital Energies and Occupations

         #    Occupation            Energy/Eh            Energy/eV
      -------------------------------------------------------------
         1        2.0000           -1.0607742             -28.8651
       ...           ...                  ...                  ...
        34        2.0000           -0.4692592             -12.7692
        35        2.0000           -0.4674236             -12.7192
        36        2.0000           -0.4525770             -12.3152
        37        2.0000           -0.4455678             -12.1245
        38        2.0000           -0.4417541             -12.0207
        39        2.0000           -0.4403181             -11.9817
        40        2.0000           -0.4297829             -11.6950
        41        2.0000           -0.4247982             -11.5593
        42        2.0000           -0.4154464             -11.3049
        43        2.0000           -0.4056914             -11.0394
        44        2.0000           -0.3954101             -10.7597
        45        2.0000           -0.3881450             -10.5620
        46        2.0000           -0.3542640              -9.6400 (HOMO)
        47                         -0.3130156              -8.5176 (LUMO)
        48                         -0.2592831              -7.0555
        49                         -0.2406881              -6.5495
        50                         -0.2305636              -6.2740
        51                         -0.2142248              -5.8294
        52                         -0.1620566              -4.4098
        53                         -0.1479050              -4.0247
        54                         -0.1039152              -2.8277
        55                         -0.0791529              -2.1539
        56                         -0.0112944              -0.3073
        57                          0.0094619               0.2575
       ...                                ...                  ...
        90                          0.7237945              19.6954
      -------------------------------------------------------------
                  HL-Gap            0.0412484 Eh            1.1224 eV
             Fermi-level           -0.3336398 Eh           -9.0788 eV

     #   Z        covCN         q      C6AA      α(0)
     1   6 C      3.688    -0.051    21.695     6.667
     2   7 N      2.792    -0.040    22.019     6.969
     3   6 C      3.147     0.050    26.626     8.441
     4   6 C      2.910    -0.049    29.215     8.863
     5   6 C      2.919    -0.026    28.652     8.778
     6   6 C      2.919    -0.038    28.934     8.821
     7   6 C      2.909    -0.022    28.551     8.762
     8   6 C      3.079    -0.021    28.438     8.743
     9   6 C      3.085     0.073    26.274     8.403
    10   7 N      1.840    -0.234    26.968     7.696
    11   6 C      2.979     0.067    26.494     8.443
    12   6 C      2.956    -0.032    28.804     8.803
    13   6 C      2.880     0.082    26.177     8.388
    14  17 Cl     0.954    -0.168   104.424    15.634
    15   6 C      2.914     0.056    26.755     8.482
    16   7 N      1.846    -0.215    26.534     7.634
    17   6 C      2.952     0.157    24.613     8.137
    18   7 N      1.844    -0.256    27.516     7.774
    19   6 C      3.121     0.133    24.924     8.176
    20   1 H      0.924     0.060     2.193     2.316
    21   1 H      0.925     0.087     1.907     2.159
    22   1 H      0.924     0.062     2.175     2.306
    23   1 H      0.926     0.039     2.464     2.455
    24   1 H      0.926     0.043     2.412     2.429
    25   1 H      0.926     0.041     2.430     2.437
    26   1 H      0.926     0.056     2.249     2.345
    27   1 H      0.926     0.076     2.022     2.224
    28   1 H      0.926     0.071     2.071     2.250

 Mol. C6AA /au·bohr⁶  :      13523.858919
 Mol. C8AA /au·bohr⁸  :     356734.890543
 Mol. α(0) /au        :        184.535623


Wiberg/Mayer (AO) data.
largest (>0.10) Wiberg bond orders for each atom
          total WBO             WBO to atom ...
     1  C   3.962        N    2 0.997    H   21 0.977    H   22 0.976    H   20 0.973
     2  N   3.572        C   19 1.198    C    3 1.119    C    1 0.997
     3  C   3.951        C    4 1.366    C    8 1.263    N    2 1.119
     4  C   3.983        C    5 1.456    C    3 1.366    H   23 0.968    C    7 0.105
     5  C   3.970        C    4 1.456    C    6 1.403    H   24 0.971
     6  C   3.982        C    7 1.469    C    5 1.403    H   25 0.971
     7  C   3.978        C    6 1.469    C    8 1.360    H   26 0.968    C    4 0.105
     8  C   3.982        C    7 1.360    C    3 1.263    C    9 1.147
     9  C   3.981        N   10 1.461    C    8 1.147    C   19 1.134
    10  N   3.055        C    9 1.461    C   11 1.301
    11  C   3.974        N   10 1.301    C   12 1.295    C   17 1.167
    12  C   3.973        C   13 1.486    C   11 1.295    H   27 0.961    N   16 0.101
    13  C   3.904        C   12 1.486    C   15 1.296    Cl  14 0.974
    14  Cl  1.110        C   13 0.974
    15  C   3.962        N   16 1.530    C   13 1.296    H   28 0.959
    16  N   3.073        C   15 1.530    C   17 1.291    C   12 0.101
    17  C   3.967        N   18 1.309    N   16 1.291    C   11 1.167
    18  N   3.046        C   19 1.416    C   17 1.309
    19  C   3.962        N   18 1.416    N    2 1.198    C    9 1.134
    20  H   0.994        C    1 0.973
    21  H   0.992        C    1 0.977
    22  H   0.995        C    1 0.976
    23  H   0.998        C    4 0.968
    24  H   0.998        C    5 0.971
    25  H   0.998        C    6 0.971
    26  H   0.996        C    7 0.968
    27  H   0.994        C   12 0.961
    28  H   0.994        C   15 0.959

molecular dipole:
                 x           y           z       tot (Debye)
 q only:       -2.069      -0.473      -0.060
   full:       -1.836      -0.105      -0.057       4.676
molecular quadrupole (traceless):
                xx          xy          yy          xz          yz          zz
 q only:       -7.129      -0.214       6.849      -0.108       0.089       0.279
  q+dip:        1.740       5.248       2.326       0.379       0.187      -4.067
   full:       -0.247       5.832      -1.267       0.177       0.068       1.514


           -------------------------------------------------
          | TOTAL ENERGY              -50.852566333513 Eh   |
          | GRADIENT NORM               0.065069327931 Eh/α |
          | HOMO-LUMO GAP               1.122426692115 eV   |
           -------------------------------------------------

------------------------------------------------------------------------
 * finished run on 2026/01/18 at 23:59:54.539     
------------------------------------------------------------------------
 total:
 * wall-time:     0 d,  0 h,  0 min,  0.239 sec
 *  cpu-time:     0 d,  0 h,  0 min,  0.117 sec
 * ratio c/w:     0.488 speedup
 SCF:
 * wall-time:     0 d,  0 h,  0 min,  0.080 sec
 *  cpu-time:     0 d,  0 h,  0 min,  0.080 sec
 * ratio c/w:     1.000 speedup


-------------------------   --------------------
FINAL SINGLE POINT ENERGY         0.000000000000
-------------------------   --------------------

------------------------------------------------------------------------------
                         ORCA GEOMETRY RELAXATION STEP
------------------------------------------------------------------------------

Reading the OPT-File                    .... done
Getting information on internals        .... done
Copying old internal coords+grads       .... done
Making the new internal coordinates     .... (new redundants).... done
Validating the new internal coordinates .... (new redundants).... done
Calculating the B-matrix                .... done
Calculating the G,G- and P matrices     .... done
Transforming gradient to internals      .... done
Projecting the internal gradient        .... done
Number of atoms                         ....  28
Number of internal coordinates          .... 156
Current Energy                          ....     0.000000000 Eh
Current gradient norm                   ....     0.065069328 Eh/bohr
Maximum allowed component of the step   ....  0.300
Current trust radius                    ....  0.300
Updating the Hessian (BFGS)             .... done
Forming the augmented Hessian           .... done
Diagonalizing the augmented Hessian     .... done
Last element of RFO vector              ....  0.992956356
Lowest eigenvalues of augmented Hessian:
 -0.004810186  0.015954947  0.022975854  0.023291228  0.023352834
Length of the computed step             ....  0.119321151
The final length of the internal step   ....  0.119321151
Converting the step to cartesian space:
 Initial RMS(Int)=    0.0095533378
Transforming coordinates:
 Iter   0:  RMS(Cart)=    0.0303505994 RMS(Int)=    1.0053854072
 Iter   1:  RMS(Cart)=    0.0003053857 RMS(Int)=    0.0001463976
 Iter   2:  RMS(Cart)=    0.0000046713 RMS(Int)=    0.0000021678
 Iter   3:  RMS(Cart)=    0.0000001324 RMS(Int)=    0.0000000938
 Iter   4:  RMS(Cart)=    0.0000000039 RMS(Int)=    0.0000000020
done
Storing new coordinates                 .... done

                                .--------------------.
          ----------------------|Geometry convergence|-------------------------
          Item                value                   Tolerance       Converged
          ---------------------------------------------------------------------
          Energy change       0.0000000000            0.0000050000      YES
          RMS gradient        0.0035427604            0.0001000000      NO
          MAX gradient        0.0199401124            0.0003000000      NO
          RMS step            0.0095533378            0.0020000000      NO
          MAX step            0.0428706723            0.0040000000      NO
          ........................................................
          Max(Bonds)      0.0227      Max(Angles)    1.29
          Max(Dihed)        1.24      Max(Improp)    0.00
          ---------------------------------------------------------------------

The optimization has not yet converged - more geometry cycles are needed


    ---------------------------------------------------------------------------
                         Redundant Internal Coordinates
                            (Angstroem and degrees)

        Definition                    Value    dE/dq     Step     New-Value
    ----------------------------------------------------------------------------
     1. B(N   1,C   0)                1.4379  0.002696 -0.0045    1.4333   
     2. B(C   2,N   1)                1.3796 -0.005464  0.0056    1.3852   
     3. B(C   3,C   2)                1.3902  0.003417 -0.0040    1.3862   
     4. B(C   4,C   3)                1.3899  0.005286 -0.0069    1.3831   
     5. B(C   5,C   4)                1.3985  0.004645 -0.0063    1.3922   
     6. B(C   6,C   5)                1.3879  0.005278 -0.0067    1.3811   
     7. B(C   7,C   2)                1.4057 -0.007345  0.0087    1.4144   
     8. B(C   7,C   6)                1.3909  0.002102 -0.0022    1.3886   
     9. B(C   8,C   7)                1.4141 -0.016020  0.0186    1.4327   
    10. B(N   9,C   8)                1.3241  0.013559 -0.0155    1.3086   
    11. B(C  10,N   9)                1.3502  0.000889 -0.0014    1.3488   
    12. B(C  11,C  10)                1.3946 -0.006634  0.0081    1.4027   
    13. B(C  12,C  11)                1.3780  0.005222 -0.0063    1.3717   
    14. B(Cl 13,C  12)                1.7387  0.004745 -0.0092    1.7295   
    15. B(C  14,C  12)                1.4012 -0.004536  0.0051    1.4063   
    16. B(N  15,C  14)                1.3162  0.014804 -0.0180    1.2982   
    17. B(C  16,N  15)                1.3395 -0.000420  0.0001    1.3396   
    18. B(C  16,C  10)                1.4396 -0.002637  0.0037    1.4433   
    19. B(N  17,C  16)                1.3414  0.000428 -0.0010    1.3405   
    20. B(C  18,N  17)                1.3249  0.012372 -0.0143    1.3106   
    21. B(C  18,C   8)                1.4128 -0.019940  0.0227    1.4355   
    22. B(C  18,N   1)                1.3568 -0.000387  0.0001    1.3569   
    23. B(H  19,C   0)                1.0944  0.000941 -0.0019    1.0925   
    24. B(H  20,C   0)                1.0896  0.001287 -0.0026    1.0869   
    25. B(H  21,C   0)                1.0932  0.001241 -0.0026    1.0906   
    26. B(H  22,C   3)                1.0786 -0.000078  0.0002    1.0787   
    27. B(H  23,C   4)                1.0783 -0.000591  0.0011    1.0794   
    28. B(H  24,C   5)                1.0784 -0.000377  0.0007    1.0792   
    29. B(H  25,C   6)                1.0771 -0.000052  0.0001    1.0772   
    30. B(H  26,C  11)                1.0798  0.000456 -0.0009    1.0789   
    31. B(H  27,C  14)                1.0769 -0.001888  0.0036    1.0806   
    32. A(H  20,C   0,H  21)          109.00 -0.001776    0.45    109.44   
    33. A(H  19,C   0,H  21)          109.48  0.000924   -0.12    109.35   
    34. A(N   1,C   0,H  20)          109.28  0.004360   -1.09    108.19   
    35. A(N   1,C   0,H  19)          109.96 -0.002337    0.55    110.51   
    36. A(N   1,C   0,H  21)          109.83 -0.000656    0.20    110.03   
    37. A(H  19,C   0,H  20)          109.28 -0.000506    0.01    109.29   
    38. A(C   0,N   1,C  18)          126.33  0.005082   -0.84    125.49   
    39. A(C   2,N   1,C  18)          106.63 -0.007947    1.29    107.91   
    40. A(C   0,N   1,C   2)          126.94  0.002854   -0.41    126.53   
    41. A(C   3,C   2,C   7)          120.58  0.000090    0.10    120.69   
    42. A(N   1,C   2,C   7)          110.79  0.001677   -0.46    110.33   
    43. A(N   1,C   2,C   3)          128.62 -0.001768    0.36    128.98   
    44. A(C   2,C   3,C   4)          117.85  0.000411   -0.10    117.75   
    45. A(C   4,C   3,H  22)          120.63 -0.000390    0.09    120.72   
    46. A(C   2,C   3,H  22)          121.52 -0.000022    0.01    121.53   
    47. A(C   3,C   4,C   5)          121.44 -0.001861    0.27    121.70   
    48. A(C   3,C   4,H  23)          119.25  0.000953   -0.14    119.11   
    49. A(C   5,C   4,H  23)          119.31  0.000908   -0.13    119.18   
    50. A(C   4,C   5,C   6)          121.00 -0.000922    0.10    121.11   
    51. A(C   4,C   5,H  24)          119.41  0.000956   -0.16    119.25   
    52. A(C   6,C   5,H  24)          119.59 -0.000033    0.06    119.64   
    53. A(C   5,C   6,H  25)          121.27 -0.000763    0.18    121.45   
[...]
   143. D(N  15,C  16,C  10,C  11)      0.00  0.000000   -0.00      0.00   
   144. D(N  15,C  16,C  10,N   9)   -180.00 -0.000001    0.00   -180.00   
   145. D(C  18,N  17,C  16,C  10)     -0.02 -0.000003    0.01     -0.01   
   146. D(C  18,N  17,C  16,N  15)    179.99 -0.000002    0.00    179.99   
   147. D(C   8,C  18,N  17,C  16)      0.01  0.000003   -0.01      0.00   
   148. D(N   1,C  18,N  17,C  16)    179.97 -0.000004    0.01    179.98   
   149. D(N  17,C  18,C   8,N   9)      0.01 -0.000001   -0.00      0.01   
   150. D(N  17,C  18,C   8,C   7)    179.99 -0.000005    0.01    180.00   
   151. D(N   1,C  18,C   8,N   9)   -179.96  0.000006   -0.02   -179.98   
   152. D(N   1,C  18,C   8,C   7)      0.03  0.000001   -0.01      0.02   
   153. D(N  17,C  18,N   1,C   2)    179.99  0.000005   -0.00    179.99   
   154. D(N  17,C  18,N   1,C   0)      0.22  0.000021   -0.08      0.14   
   155. D(C   8,C  18,N   1,C   2)     -0.04 -0.000001    0.02     -0.03   
   156. D(C   8,C  18,N   1,C   0)   -179.82  0.000015   -0.06   -179.88   
    ----------------------------------------------------------------------------
                 *******************************************************
                 *** FINAL ENERGY EVALUATION AT THE STATIONARY POINT ***
                 ***               (AFTER   11 CYCLES)               ***
                 *******************************************************
      -----------------------------------------------------------      
     |                   =====================                   |     
     |                           x T B                           |     
     |                   =====================                   |     
     |                         S. Grimme                         |     
     |          Mulliken Center for Theoretical Chemistry        |     
     |                    University of Bonn                     |     
      -----------------------------------------------------------      

   * xtb version 6.2.3 (830e466) compiled by 'ehlert@majestix' on 2020-03-16

   xtb is free software: you can redistribute it and/or modify it under
   the terms of the GNU Lesser General Public License as published by
   the Free Software Foundation, either version 3 of the License, or
   (at your option) any later version.
   
   xtb is distributed in the hope that it will be useful,
   but WITHOUT ANY WARRANTY; without even the implied warranty of
   MERCHANTABILITY or FITNESS FOR A PARTICULAR PURPOSE.  See the
   GNU Lesser General Public License for more details.
   
   Cite this work as:
   * S. Grimme, C. Bannwarth, P. Shushkov, J. Chem. Theory Comput., 2017,
     13, 1989-2009. DOI: 10.1021/acs.jctc.7b00118
   * C. Bannwarth, S. Ehlert and S. Grimme., J. Chem. Theory Comput., 2019,
     15, 1652-1671. DOI: 10.1021/acs.jctc.8b01176
   * P. Pracht, E. Caldeweyher, S. Ehlert, S. Grimme, ChemRxiv, 2019, preprint.
     DOI: 10.26434/chemrxiv.8326202.v1
   
   for DFT-D4:
   * E. Caldeweyher, C. Bannwarth and S. Grimme, J. Chem. Phys., 2017,
     147, 034112. DOI: 10.1063/1.4993215
   * E. Caldeweyher, S. Ehlert, A. Hansen, H. Neugebauer, S. Spicher,
     C. Bannwarth and S. Grimme, J. Chem. Phys., 2019, 150, 154122.
     DOI: 10.1063/1.5090222
   
   for sTDA-xTB:
   * S. Grimme and C. Bannwarth, J. Chem. Phys., 2016, 145, 054103.
     DOI: 10.1063/1.4959605
   
   in the mass-spec context:
   * V. Asgeirsson, C. Bauer and S. Grimme, Chem. Sci., 2017, 8, 4879.
     DOI: 10.1039/c7sc00601b
   
   for metadynamics refer to:
   * S. Grimme, J. Chem. Theory Comput., 2019, 155, 2847-2862
     DOI: 10.1021/acs.jctc.9b00143
   
   with help from (in alphabetical order)
   C. Bannwarth, F. Bohle, G. Brandenburg, E. Caldeweyher, M. Checinski,
   S. Dohm, S. Ehlert, S. Ehrlich, F. März, H. Neugebauer, J. Pisarek,
   P. Pracht, P. Shushkov, and S. Spicher.
   
 * started run on 2026/01/19 at 00:00:03.631     

           -------------------------------------------------
          |                Calculation Setup                |
           -------------------------------------------------

          program call               : /appl/orca_4.2.1/orca_4_2_1_linux_x86-64_openmpi314/xtb pre_opt_XTB.xyz --grad -c 0 -u 0 -P 1 --namespace pre_opt
          hostname                   : cnode8
          calculation namespace      : pre_opt
          coordinate file            : pre_opt_XTB.xyz
          omp threads                :                     1
          number of atoms            :                    28
          number of electrons        :                    92
          charge                     :                     0
          spin                       :                   0.0
          first test random number   :      0.80783521415013

########################################################################
[WARNING] Please study the warnings concerning your input carefully
-2- prog_main: XTBPATH is not set, using XTBHOME instead
-1- prog_main: XTBHOME is not set, using HOME instead
########################################################################
           ------------------------------------------------- 
          |                 G F N 2 - x T B                 |
          | Geometry, Frequencies, Noncovalent interactions |
          |            JCTC 2019 parametrisation            |
           ------------------------------------------------- 
             k(s)              :                1.8500
             k(p)              :                2.2300
             k(d)              :                2.2300
             k(f)              :                2.0000
             kEN (H0ij)        :               -2.0000
             D4 a1             :                0.5200
             D4 a2             :                5.0000
             D4 s6             :                1.0000
             D4 s8             :                2.7000
             D4 s9             :                5.0000
             alphaj            :                2.0000

  Z AO/shell   Hii/eV     exponent
  1     Wed Apr 25 08:07:45 CEST 2018   EN: 2.200 GM2: 0.406  GM3: 0.0800  RAES: 1.40
     1s    -10.707211    1.230000
  6     Wed Apr 25 08:07:45 CEST 2018   EN: 2.550 GM2: 0.538  GM3: 0.1500  RAES: 3.00
     2s    -13.970922    2.096432
     2p    -10.063292    1.800000
  7     Wed Apr 25 08:07:45 CEST 2018   EN: 3.040 GM2: 0.461  GM3:-0.0640  RAES: 1.90
     2s    -16.686243    2.339881
     2p    -12.523956    2.014332
 17     Mon Apr 23 14:09:22 CEST 2018   EN: 3.160 GM2: 0.249  GM3: 0.1495  RAES: 2.50
     3s    -29.278781    2.485265
     3p    -12.673758    2.199650
     3d     -0.240338    2.476089

           ------------------------------------------------- 
          |        Self-Consistent Charge Iterations        |
           ------------------------------------------------- 

          ...................................................
          :                      SETUP                      :
          :.................................................:
          :  # basis functions                  91          :
          :  # atomic orbitals                  90          :
          :  # shells                           48          :
          :  # electrons                        92          :
          :  max. iterations                   250          :
          :  Hamiltonian                  GFN2-xTB          :
          :  restarted?                      false          :
          :  GBSA solvation                  false          :
          :  PC potential                    false          :
          :  electronic temp.          300.0000000     K    :
          :  accuracy                    1.0000000          :
          :  -> integral cutoff          0.2500000E+02      :
          :  -> integral neglect         0.1000000E-07      :
          :  -> SCF convergence          0.1000000E-05 Eh   :
          :  -> wf. convergence          0.1000000E-03 e    :
          :  Broyden damping             0.4000000          :
          ...................................................

 iter      E             dE          RMSdq      gap      omega  full diag
   1    -51.5198323 -0.515198E+02  0.470E+00    1.68       0.0  T
   2    -51.5937390 -0.739068E-01  0.308E+00    1.50       1.0  T
   3    -51.5946667 -0.927701E-03  0.159E+00    1.41       1.0  T
   4    -51.6106164 -0.159497E-01  0.469E-01    1.26       1.0  T
   5    -51.6176272 -0.701076E-02  0.135E-01    1.26       1.0  T
   6    -51.6179083 -0.281183E-03  0.567E-02    1.27       1.0  T
   7    -51.6179382 -0.298669E-04  0.300E-02    1.26       1.0  T
   8    -51.6179430 -0.477366E-05  0.193E-02    1.27       1.0  T
   9    -51.6179458 -0.277592E-05  0.140E-02    1.27       1.3  T
  10    -51.6179477 -0.193750E-05  0.874E-03    1.27       2.2  T
  11    -51.6179488 -0.106906E-05  0.404E-03    1.27       4.7  T
  12    -51.6179489 -0.172316E-06  0.199E-03    1.27       9.5  T
  13    -51.6179490 -0.526717E-07  0.557E-04    1.27      33.9  T
  14    -51.6179490 -0.415013E-08  0.216E-04    1.27      87.6  T

   *** convergence criteria satisfied after 14 iterations ***

         #    Occupation            Energy/Eh            Energy/eV
      -------------------------------------------------------------
         1        2.0000           -1.0613403             -28.8805
       ...           ...                  ...                  ...
        40        2.0000           -0.4306777             -11.7193
        41        2.0000           -0.4275028             -11.6329
        42        2.0000           -0.4162354             -11.3263
        43        2.0000           -0.4055292             -11.0350
        44        2.0000           -0.3956032             -10.7649
        45        2.0000           -0.3875650             -10.5462
        46        2.0000           -0.3556317              -9.6772 (HOMO)
        47                         -0.3090100              -8.4086 (LUMO)
        48                         -0.2594782              -7.0608
        49                         -0.2413358              -6.5671
        50                         -0.2298483              -6.2545
        51                         -0.2135691              -5.8115
       ...                                ...                  ...
        90                          0.7159093              19.4809
      -------------------------------------------------------------
                  HL-Gap            0.0466217 Eh            1.2686 eV
             Fermi-level           -0.3323209 Eh           -9.0429 eV

 SCC (total)                   0 d,  0 h,  0 min,  0.056 sec
 SCC setup                      ...        0 min,  0.000 sec (  0.755%)
 Dispersion                     ...        0 min,  0.000 sec (  0.701%)
 integral evaluation            ...        0 min,  0.020 sec ( 35.610%)
 zeroth order Hamiltonian       ...        0 min,  0.000 sec (  0.400%)
 iterations                     ...        0 min,  0.018 sec ( 31.737%)
 molecular gradient             ...        0 min,  0.017 sec ( 30.513%)
 printout                       ...        0 min,  0.000 sec (  0.208%)

         :::::::::::::::::::::::::::::::::::::::::::::::::::::
         ::                     SUMMARY                     ::
         :::::::::::::::::::::::::::::::::::::::::::::::::::::
         :: total energy             -50.855762776487 Eh    ::
         :: gradient norm              0.000472564927 Eh/a0 ::
         :: HOMO-LUMO gap              1.268641693973 eV    ::
         ::.................................................::
         :: SCC energy               -51.617948999582 Eh    ::
         :: -> isotropic ES            0.030040192906 Eh    ::
         :: -> anisotropic ES          0.001756716323 Eh    ::
         :: -> anisotropic XC          0.035913114118 Eh    ::
         :: -> dispersion             -0.034271159766 Eh    ::
         :: repulsion energy           0.762419656213 Eh    ::
         :: add. restraining           0.000000000000 Eh    ::
         :::::::::::::::::::::::::::::::::::::::::::::::::::::

           -------------------------------------------------
          |                Property Printout                |
           -------------------------------------------------

    * Orbital Energies and Occupations

         #    Occupation            Energy/Eh            Energy/eV
      -------------------------------------------------------------
         1        2.0000           -1.0613403             -28.8805
       ...           ...                  ...                  ...
        34        2.0000           -0.4700501             -12.7907
        35        2.0000           -0.4667079             -12.6998
        36        2.0000           -0.4524945             -12.3130
        37        2.0000           -0.4471975             -12.1689
        38        2.0000           -0.4411273             -12.0037
        39        2.0000           -0.4400037             -11.9731
        40        2.0000           -0.4306777             -11.7193
        41        2.0000           -0.4275028             -11.6329
        42        2.0000           -0.4162354             -11.3263
        43        2.0000           -0.4055292             -11.0350
        44        2.0000           -0.3956032             -10.7649
        45        2.0000           -0.3875650             -10.5462
        46        2.0000           -0.3556317              -9.6772 (HOMO)
        47                         -0.3090100              -8.4086 (LUMO)
        48                         -0.2594782              -7.0608
        49                         -0.2413358              -6.5671
        50                         -0.2298483              -6.2545
        51                         -0.2135691              -5.8115
        52                         -0.1631399              -4.4393
        53                         -0.1437942              -3.9128
        54                         -0.1033747              -2.8130
        55                         -0.0816075              -2.2207
        56                         -0.0081809              -0.2226
        57                          0.0084956               0.2312
       ...                                ...                  ...
        90                          0.7159093              19.4809
      -------------------------------------------------------------
                  HL-Gap            0.0466217 Eh            1.2686 eV
             Fermi-level           -0.3323209 Eh           -9.0429 eV

     #   Z        covCN         q      C6AA      α(0)
     1   6 C      3.690    -0.053    21.726     6.671
     2   7 N      2.787    -0.041    22.030     6.971
     3   6 C      3.094     0.049    26.781     8.482
     4   6 C      2.910    -0.048    29.186     8.859
     5   6 C      2.924    -0.025    28.629     8.775
     6   6 C      2.920    -0.037    28.911     8.817
     7   6 C      2.911    -0.021    28.527     8.758
     8   6 C      3.054    -0.022    28.508     8.756
     9   6 C      3.068     0.073    26.312     8.411
    10   7 N      1.838    -0.228    26.833     7.676
    11   6 C      2.995     0.064    26.558     8.454
    12   6 C      2.957    -0.034    28.851     8.810
    13   6 C      2.880     0.082    26.170     8.386
    14  17 Cl     0.960    -0.164   104.298    15.624
    15   6 C      2.932     0.057    26.728     8.479
    16   7 N      1.845    -0.213    26.485     7.627
    17   6 C      2.986     0.153    24.673     8.148
    18   7 N      1.844    -0.255    27.487     7.770
    19   6 C      3.088     0.133    25.010     8.198
    20   1 H      0.924     0.060     2.196     2.317
    21   1 H      0.925     0.090     1.882     2.145
    22   1 H      0.924     0.060     2.196     2.317
    23   1 H      0.926     0.039     2.456     2.450
    24   1 H      0.926     0.042     2.424     2.435
    25   1 H      0.926     0.041     2.432     2.439
    26   1 H      0.926     0.054     2.269     2.355
    27   1 H      0.926     0.076     2.025     2.225
    28   1 H      0.925     0.069     2.101     2.266

 Mol. C6AA /au·bohr⁶  :      13531.655501
 Mol. C8AA /au·bohr⁸  :     356916.701906
 Mol. α(0) /au        :        184.622547


Wiberg/Mayer (AO) data.
largest (>0.10) Wiberg bond orders for each atom
          total WBO             WBO to atom ...
     1  C   3.962        N    2 0.997    H   21 0.976    H   22 0.975    H   20 0.975
     2  N   3.573        C   19 1.203    C    3 1.117    C    1 0.997
     3  C   3.952        C    4 1.374    C    8 1.260    N    2 1.117
     4  C   3.983        C    5 1.452    C    3 1.374    H   23 0.967    C    7 0.103
     5  C   3.972        C    4 1.452    C    6 1.408    H   24 0.971
     6  C   3.981        C    7 1.463    C    5 1.408    H   25 0.971
     7  C   3.980        C    6 1.463    C    8 1.371    H   26 0.968    C    4 0.103
     8  C   3.981        C    7 1.371    C    3 1.260    C    9 1.134
     9  C   3.980        N   10 1.502    C    8 1.134    C   19 1.098
    10  N   3.063        C    9 1.502    C   11 1.283
    11  C   3.974        N   10 1.283    C   12 1.282    C   17 1.191
    12  C   3.975        C   13 1.502    C   11 1.282    H   27 0.962
    13  C   3.904        C   12 1.502    C   15 1.274    Cl  14 0.980
    14  Cl  1.118        C   13 0.980
    15  C   3.964        N   16 1.554    C   13 1.274    H   28 0.958
    16  N   3.077        C   15 1.554    C   17 1.278
    17  C   3.967        N   18 1.288    N   16 1.278    C   11 1.191
    18  N   3.050        C   19 1.446    C   17 1.288
    19  C   3.960        N   18 1.446    N    2 1.203    C    9 1.098
    20  H   0.994        C    1 0.975
    21  H   0.992        C    1 0.976
    22  H   0.994        C    1 0.975
    23  H   0.998        C    4 0.967
    24  H   0.998        C    5 0.971
    25  H   0.998        C    6 0.971
    26  H   0.997        C    7 0.968
    27  H   0.994        C   12 0.962
    28  H   0.995        C   15 0.958

molecular dipole:
                 x           y           z       tot (Debye)
 q only:       -2.042      -0.434      -0.065
   full:       -1.842      -0.075      -0.052       4.687
molecular quadrupole (traceless):
                xx          xy          yy          xz          yz          zz
 q only:       -6.990      -0.018       6.717      -0.205       0.123       0.273
  q+dip:        1.466       5.008       2.328       0.248       0.258      -3.794
   full:       -0.489       5.615      -1.297       0.047       0.089       1.785


           -------------------------------------------------
          | TOTAL ENERGY              -50.855762776487 Eh   |
          | GRADIENT NORM               0.000472564927 Eh/α |
          | HOMO-LUMO GAP               1.268641693973 eV   |
           -------------------------------------------------

------------------------------------------------------------------------
 * finished run on 2026/01/19 at 00:00:03.963     
------------------------------------------------------------------------
 total:
 * wall-time:     0 d,  0 h,  0 min,  0.331 sec
 *  cpu-time:     0 d,  0 h,  0 min,  0.088 sec
 * ratio c/w:     0.266 speedup
 SCF:
 * wall-time:     0 d,  0 h,  0 min,  0.056 sec
 *  cpu-time:     0 d,  0 h,  0 min,  0.056 sec
 * ratio c/w:     1.000 speedup


-------------------------   --------------------
FINAL SINGLE POINT ENERGY         0.000000000000
-------------------------   --------------------

                                *** OPTIMIZATION RUN DONE ***

Timings for individual modules:

Sum of individual times         ...        8.436 sec (=   0.141 min)
Geometry relaxation             ...        3.441 sec (=   0.057 min)  40.8 %
XTB module                      ...        4.996 sec (=   0.083 min)  59.2 %
                             ****ORCA TERMINATED NORMALLY****
TOTAL RUN TIME: 0 days 0 hours 0 minutes 11 seconds 558 msec
