 Entering Gaussian System, Link 0=g16
 Initial command:
 /appl/Gaussian16/AVX_revB01/g16/l1.exe "/home/junhkim/WORK/Review_DD/TADF-Design/data/td_dft/results/mol_410/Gau-3198233.inp" -scrdir="/home/junhkim/WORK/Review_DD/TADF-Design/data/td_dft/results/mol_410/"
 Entering Link 1 = /appl/Gaussian16/AVX_revB01/g16/l1.exe PID=   3198235.
  
 Copyright (c) 1988-2017, Gaussian, Inc.  All Rights Reserved.
  
 This is part of the Gaussian(R) 16 program.  It is based on
 the Gaussian(R) 09 system (copyright 2009, Gaussian, Inc.),
 the Gaussian(R) 03 system (copyright 2003, Gaussian, Inc.),
 the Gaussian(R) 98 system (copyright 1998, Gaussian, Inc.),
 the Gaussian(R) 94 system (copyright 1995, Gaussian, Inc.),
 the Gaussian 92(TM) system (copyright 1992, Gaussian, Inc.),
 the Gaussian 90(TM) system (copyright 1990, Gaussian, Inc.),
 the Gaussian 88(TM) system (copyright 1988, Gaussian, Inc.),
 the Gaussian 86(TM) system (copyright 1986, Carnegie Mellon
 University), and the Gaussian 82(TM) system (copyright 1983,
 Carnegie Mellon University). Gaussian is a federally registered
 trademark of Gaussian, Inc.
  
 This software contains proprietary and confidential information,
 including trade secrets, belonging to Gaussian, Inc.
  
 This software is provided under written license and may be
 used, copied, transmitted, or stored only in accord with that
 written license.
  
 The following legend is applicable only to US Government
 contracts under FAR:
  
                    RESTRICTED RIGHTS LEGEND
  
 Use, reproduction and disclosure by the US Government is
 subject to restrictions as set forth in subparagraphs (a)
 and (c) of the Commercial Computer Software - Restricted
 Rights clause in FAR 52.227-19.
  
 Gaussian, Inc.
 340 Quinnipiac St., Bldg. 40, Wallingford CT 06492
  
  
 ---------------------------------------------------------------
 Warning -- This program may not be used in any manner that
 competes with the business of Gaussian, Inc. or will provide
 assistance to any competitor of Gaussian, Inc.  The licensee
 of this program is prohibited from giving any competitor of
 Gaussian, Inc. access to this program.  By using this program,
 the user acknowledges that Gaussian, Inc. is engaged in the
 business of creating and licensing software in the field of
 computational chemistry and represents and warrants to the
 licensee that it is not a competitor of Gaussian, Inc. and that
 it will not use this program in any manner prohibited above.
 ---------------------------------------------------------------
  

 Cite this work as:
 Gaussian 16, Revision B.01,
 M. J. Frisch, G. W. Trucks, H. B. Schlegel, G. E. Scuseria, 
 M. A. Robb, J. R. Cheeseman, G. Scalmani, V. Barone, 
 G. A. Petersson, H. Nakatsuji, X. Li, M. Caricato, A. V. Marenich, 
 J. Bloino, B. G. Janesko, R. Gomperts, B. Mennucci, H. P. Hratchian, 
 J. V. Ortiz, A. F. Izmaylov, J. L. Sonnenberg, D. Williams-Young, 
 F. Ding, F. Lipparini, F. Egidi, J. Goings, B. Peng, A. Petrone, 
 T. Henderson, D. Ranasinghe, V. G. Zakrzewski, J. Gao, N. Rega, 
 G. Zheng, W. Liang, M. Hada, M. Ehara, K. Toyota, R. Fukuda, 
 J. Hasegawa, M. Ishida, T. Nakajima, Y. Honda, O. Kitao, H. Nakai, 
 T. Vreven, K. Throssell, J. A. Montgomery, Jr., J. E. Peralta, 
 F. Ogliaro, M. J. Bearpark, J. J. Heyd, E. N. Brothers, K. N. Kudin, 
 V. N. Staroverov, T. A. Keith, R. Kobayashi, J. Normand, 
 K. Raghavachari, A. P. Rendell, J. C. Burant, S. S. Iyengar, 
 J. Tomasi, M. Cossi, J. M. Millam, M. Klene, C. Adamo, R. Cammi, 
 J. W. Ochterski, R. L. Martin, K. Morokuma, O. Farkas, 
 J. B. Foresman, and D. J. Fox, Gaussian, Inc., Wallingford CT, 2016.
 
 ******************************************
 Gaussian 16:  ES64L-G16RevB.01 20-Dec-2017
                19-Jan-2026 
 ******************************************
 %OldChk=/home/junhkim/WORK/Review_DD/TADF-Design/data/td_dft/results/mol_410/opt
 .chk
 %nprocshared=16
 Will use up to   16 processors via shared memory.
 %mem=60GB
 Copying data from "/home/junhkim/WORK/Review_DD/TADF-Design/data/td_dft/results/mol_410/opt.chk" to current chk file "/home/junhkim/WORK/Review_DD/TADF-Design/data/td_dft/results/mol_410/Gau-3198235.chk"
 IOpt=  2 FromEx=T IUOpen= 4 IOptOp= 5 NList=   0 IFRang= 0 IUIn= 4 IUOut= 2.
 -----------------------------------------------------------------
 # b3lyp/6-31g* TD=(Nstates=1,50-50) Geom=Check Guess=Read SCF=XQC
 -----------------------------------------------------------------
 1/29=2,38=1,172=1/1;
 2/12=2,40=1/2;
 3/5=1,6=6,7=1,11=9,14=-4,25=1,30=1,74=-5,116=-2/1,2,3,8;
 4/5=1/1;
 5/5=2,8=3,13=1,38=6/2,8;
 8/6=1,10=2,108=1/1;
 9/41=1,42=1,48=2,70=2/14;
 6/7=2,8=2,9=2,10=2/1;
 99/5=1,9=1/99;
 ------------------
 TD-DFT calculation
 ------------------
 Structure from the checkpoint file:  "/home/junhkim/WORK/Review_DD/TADF-Design/data/td_dft/results/mol_410/Gau-3198235.chk"
 Charge =  0 Multiplicity = 1
 Redundant internal coordinates found in file.  (old form).
 C,0,-1.6240488444,-2.6831283707,-0.0984262158
 N,0,-1.2268094856,-1.288903437,-0.0605228968
 C,0,-2.0824656113,-0.1837065871,-0.0623350829
 C,0,-3.476261096,-0.1603949935,-0.1009268371
 C,0,-4.1005320133,1.0882947836,-0.0934566022
 C,0,-3.3635087675,2.2833833027,-0.04895465
 C,0,-1.9713629596,2.2548514526,-0.010539888
 C,0,-1.3259437,1.0165287101,-0.0171733973
 C,0,0.0628361862,0.6135804763,0.0137265636
 N,0,1.1728758577,1.3144411677,0.0588832067
 C,0,2.3175572657,0.567962228,0.0761777516
 C,0,3.5666020004,1.2300387141,0.1244506565
 C,0,4.7082338722,0.4665203738,0.141366759
 Cl,0,6.2959020651,1.2066751308,0.2007069316
 C,0,4.6083182845,-0.9481364814,0.1104467506
 N,0,3.4626532052,-1.5943378684,0.0653909677
 C,0,2.312052252,-0.8731007354,0.0473655373
 N,0,1.149050074,-1.582660139,0.0005138012
 C,0,0.0727005149,-0.8372161388,-0.0149381114
 H,0,-2.1890104017,-2.9011228118,-1.011892471
 H,0,-0.715442166,-3.2868653297,-0.0836598178
 H,0,-2.2405013357,-2.9348234708,0.7720609644
 H,0,-4.05896729,-1.0754839015,-0.1355673596
 H,0,-5.185772601,1.1334269181,-0.1229528589
 H,0,-3.8859221889,3.2351907355,-0.0445847718
 H,0,-1.3886057343,3.1703797443,0.0240625297
 H,0,3.5882462288,2.3142372785,0.1466139048
 H,0,5.5181273884,-1.545629751,0.124161636
 Recover connectivity data from disk.
                           ----------------------------
                           !    Current Parameters    !
                           ! (Angstroms and Degrees)  !
 --------------------------                            --------------------------
 ! Name  Definition              Value                                          !
 --------------------------------------------------------------------------------
 ! R1    R(1,2)                  1.4502                                         !
 ! R2    R(1,20)                 1.096                                          !
 ! R3    R(1,21)                 1.091                                          !
 ! R4    R(1,22)                 1.096                                          !
 ! R5    R(2,3)                  1.3977                                         !
 ! R6    R(2,19)                 1.3765                                         !
 ! R7    R(3,4)                  1.3945                                         !
 ! R8    R(3,8)                  1.4195                                         !
 ! R9    R(4,5)                  1.3961                                         !
 ! R10   R(4,23)                 1.0854                                         !
 ! R11   R(5,6)                  1.4048                                         !
 ! R12   R(5,24)                 1.0866                                         !
 ! R13   R(6,7)                  1.393                                          !
 ! R14   R(6,25)                 1.0858                                         !
 ! R15   R(7,8)                  1.3964                                         !
 ! R16   R(7,26)                 1.0858                                         !
 ! R17   R(8,9)                  1.4464                                         !
 ! R18   R(9,10)                 1.3136                                         !
 ! R19   R(9,19)                 1.4511                                         !
 ! R20   R(10,11)                1.3667                                         !
 ! R21   R(11,12)                1.4145                                         !
 ! R22   R(11,17)                1.4414                                         !
 ! R23   R(12,13)                1.3735                                         !
 ! R24   R(12,27)                1.0846                                         !
 ! R25   R(13,14)                1.7527                                         !
 ! R26   R(13,15)                1.4185                                         !
 ! R27   R(15,16)                1.3161                                         !
 ! R28   R(15,28)                1.0885                                         !
 ! R29   R(16,17)                1.3581                                         !
 ! R30   R(17,18)                1.3632                                         !
 ! R31   R(18,19)                1.3094                                         !
 ! A1    A(2,1,20)             110.7455                                         !
 ! A2    A(2,1,21)             107.6702                                         !
 ! A3    A(2,1,22)             110.7388                                         !
 ! A4    A(20,1,21)            109.3006                                         !
 ! A5    A(20,1,22)            109.0492                                         !
 ! A6    A(21,1,22)            109.3056                                         !
 ! A7    A(1,2,3)              126.3325                                         !
 ! A8    A(1,2,19)             125.0946                                         !
 ! A9    A(3,2,19)             108.5729                                         !
 ! A10   A(2,3,4)              128.6907                                         !
 ! A11   A(2,3,8)              110.0157                                         !
 ! A12   A(4,3,8)              121.2936                                         !
 ! A13   A(3,4,5)              117.4991                                         !
 ! A14   A(3,4,23)             121.5578                                         !
 ! A15   A(5,4,23)             120.9431                                         !
 ! A16   A(4,5,6)              121.7682                                         !
 ! A17   A(4,5,24)             118.9221                                         !
 ! A18   A(6,5,24)             119.3097                                         !
 ! A19   A(5,6,7)              120.5168                                         !
 ! A20   A(5,6,25)             119.5684                                         !
 ! A21   A(7,6,25)             119.9148                                         !
 ! A22   A(6,7,8)              118.682                                          !
 ! A23   A(6,7,26)             121.3317                                         !
 ! A24   A(8,7,26)             119.9863                                         !
 ! A25   A(3,8,7)              120.2403                                         !
 ! A26   A(3,8,9)              106.0723                                         !
 ! A27   A(7,8,9)              133.6874                                         !
 ! A28   A(8,9,10)             131.5671                                         !
 ! A29   A(8,9,19)             106.537                                          !
 ! A30   A(10,9,19)            121.8959                                         !
 ! A31   A(9,10,11)            114.6327                                         !
 ! A32   A(10,11,12)           118.9712                                         !
 ! A33   A(10,11,17)           122.863                                          !
 ! A34   A(12,11,17)           118.1658                                         !
 ! A35   A(11,12,13)           118.3061                                         !
 ! A36   A(11,12,27)           119.0907                                         !
 ! A37   A(13,12,27)           122.6032                                         !
 ! A38   A(12,13,14)           121.2365                                         !
 ! A39   A(12,13,15)           119.7064                                         !
 ! A40   A(14,13,15)           119.0571                                         !
 ! A41   A(13,15,16)           123.4848                                         !
 ! A42   A(13,15,28)           119.2256                                         !
 ! A43   A(16,15,28)           117.2895                                         !
 ! A44   A(15,16,17)           118.503                                          !
 ! A45   A(11,17,16)           121.8339                                         !
 ! A46   A(11,17,18)           121.625                                          !
 ! A47   A(16,17,18)           116.5411                                         !
 ! A48   A(17,18,19)           113.9157                                         !
 ! A49   A(2,19,9)             108.8021                                         !
 ! A50   A(2,19,18)            126.1301                                         !
 ! A51   A(9,19,18)            125.0678                                         !
 ! D1    D(20,1,2,3)            60.6511                                         !
 ! D2    D(20,1,2,19)         -119.4221                                         !
 ! D3    D(21,1,2,3)          -179.9026                                         !
 ! D4    D(21,1,2,19)            0.0242                                         !
 ! D5    D(22,1,2,3)           -60.4541                                         !
 ! D6    D(22,1,2,19)          119.4727                                         !
 ! D7    D(1,2,3,4)             -0.0584                                         !
 ! D8    D(1,2,3,8)            179.9464                                         !
 ! D9    D(19,2,3,4)          -179.9952                                         !
 ! D10   D(19,2,3,8)             0.0095                                         !
 ! D11   D(1,2,19,9)          -179.9474                                         !
 ! D12   D(1,2,19,18)            0.051                                          !
 ! D13   D(3,2,19,9)            -0.0096                                         !
 ! D14   D(3,2,19,18)          179.9888                                         !
 ! D15   D(2,3,4,5)           -179.9963                                         !
 ! D16   D(2,3,4,23)             0.0026                                         !
 ! D17   D(8,3,4,5)             -0.0016                                         !
 ! D18   D(8,3,4,23)           179.9974                                         !
 ! D19   D(2,3,8,7)            179.9955                                         !
 ! D20   D(2,3,8,9)             -0.0055                                         !
 ! D21   D(4,3,8,7)             -0.0001                                         !
 ! D22   D(4,3,8,9)            179.9988                                         !
 ! D23   D(3,4,5,6)              0.0021                                         !
 ! D24   D(3,4,5,24)          -179.9992                                         !
 ! D25   D(23,4,5,6)          -179.9969                                         !
 ! D26   D(23,4,5,24)            0.0018                                         !
 ! D27   D(4,5,6,7)             -0.0009                                         !
 ! D28   D(4,5,6,25)           179.9987                                         !
 ! D29   D(24,5,6,7)          -179.9996                                         !
 ! D30   D(24,5,6,25)            0.0001                                         !
 ! D31   D(5,6,7,8)             -0.0009                                         !
 ! D32   D(5,6,7,26)          -179.9998                                         !
 ! D33   D(25,6,7,8)           179.9995                                         !
 ! D34   D(25,6,7,26)            0.0005                                         !
 ! D35   D(6,7,8,3)              0.0014                                         !
 ! D36   D(6,7,8,9)           -179.9973                                         !
 ! D37   D(26,7,8,3)          -179.9996                                         !
 ! D38   D(26,7,8,9)             0.0017                                         !
 ! D39   D(3,8,9,10)          -179.9973                                         !
 ! D40   D(3,8,9,19)            -0.0003                                         !
 ! D41   D(7,8,9,10)             0.0015                                         !
 ! D42   D(7,8,9,19)           179.9985                                         !
 ! D43   D(8,9,10,11)          179.9948                                         !
 ! D44   D(19,9,10,11)          -0.0017                                         !
 ! D45   D(8,9,19,2)             0.0061                                         !
 ! D46   D(8,9,19,18)         -179.9923                                         !
 ! D47   D(10,9,19,2)         -179.9966                                         !
 ! D48   D(10,9,19,18)           0.005                                          !
 ! D49   D(9,10,11,12)         179.9992                                         !
 ! D50   D(9,10,11,17)          -0.0025                                         !
 ! D51   D(10,11,12,13)        179.9978                                         !
 ! D52   D(10,11,12,27)         -0.002                                          !
 ! D53   D(17,11,12,13)         -0.0006                                         !
 ! D54   D(17,11,12,27)        179.9996                                         !
 ! D55   D(10,11,17,16)       -179.9969                                         !
 ! D56   D(10,11,17,18)          0.0043                                         !
 ! D57   D(12,11,17,16)          0.0014                                         !
 ! D58   D(12,11,17,18)       -179.9974                                         !
 ! D59   D(11,12,13,14)        179.9998                                         !
 ! D60   D(11,12,13,15)         -0.0004                                         !
 ! D61   D(27,12,13,14)         -0.0004                                         !
 ! D62   D(27,12,13,15)        179.9994                                         !
 ! D63   D(12,13,15,16)          0.0007                                         !
 ! D64   D(12,13,15,28)       -179.9991                                         !
 ! D65   D(14,13,15,16)       -179.9996                                         !
 ! D66   D(14,13,15,28)          0.0007                                         !
 ! D67   D(13,15,16,17)          0.0001                                         !
 ! D68   D(28,15,16,17)        179.9999                                         !
 ! D69   D(15,16,17,11)         -0.0012                                         !
 ! D70   D(15,16,17,18)        179.9977                                         !
 ! D71   D(11,17,18,19)         -0.0012                                         !
 ! D72   D(16,17,18,19)        179.9999                                         !
 ! D73   D(17,18,19,2)         179.9987                                         !
 ! D74   D(17,18,19,9)          -0.0031                                         !
 --------------------------------------------------------------------------------
                          Input orientation:                          
 ---------------------------------------------------------------------
 Center     Atomic      Atomic             Coordinates (Angstroms)
 Number     Number       Type             X           Y           Z
 ---------------------------------------------------------------------
      1          6           0       -1.624049   -2.683128   -0.098426
      2          7           0       -1.226809   -1.288903   -0.060523
      3          6           0       -2.082466   -0.183707   -0.062335
      4          6           0       -3.476261   -0.160395   -0.100927
      5          6           0       -4.100532    1.088295   -0.093457
      6          6           0       -3.363509    2.283383   -0.048955
      7          6           0       -1.971363    2.254851   -0.010540
      8          6           0       -1.325944    1.016529   -0.017173
      9          6           0        0.062836    0.613580    0.013727
     10          7           0        1.172876    1.314441    0.058883
     11          6           0        2.317557    0.567962    0.076178
     12          6           0        3.566602    1.230039    0.124451
     13          6           0        4.708234    0.466520    0.141367
     14         17           0        6.295902    1.206675    0.200707
     15          6           0        4.608318   -0.948136    0.110447
     16          7           0        3.462653   -1.594338    0.065391
     17          6           0        2.312052   -0.873101    0.047366
     18          7           0        1.149050   -1.582660    0.000514
     19          6           0        0.072701   -0.837216   -0.014938
     20          1           0       -2.189010   -2.901123   -1.011892
     21          1           0       -0.715442   -3.286865   -0.083660
     22          1           0       -2.240501   -2.934823    0.772061
     23          1           0       -4.058967   -1.075484   -0.135567
     24          1           0       -5.185773    1.133427   -0.122953
     25          1           0       -3.885922    3.235191   -0.044585
     26          1           0       -1.388606    3.170380    0.024063
     27          1           0        3.588246    2.314237    0.146614
     28          1           0        5.518127   -1.545630    0.124162
 ---------------------------------------------------------------------
                    Distance matrix (angstroms):
                    1          2          3          4          5
     1  C    0.000000
     2  N    1.450207   0.000000
     3  C    2.541369   1.397716   0.000000
     4  C    3.129677   2.516982   1.394525   0.000000
     5  C    4.511832   3.729670   2.385697   1.396065   0.000000
     6  C    5.262548   4.162553   2.779889   2.446930   1.404785
     7  C    4.950959   3.621472   2.441637   2.847157   2.429216
     8  C    3.712537   2.307970   1.419482   2.452759   2.776564
     9  C    3.704922   2.299596   2.289928   3.624554   4.191715
    10  N    4.881403   3.542619   3.585581   4.880077   5.280453
    11  C    5.112371   4.003645   4.465915   5.842106   6.441381
    12  C    6.504261   5.418125   5.826279   7.182341   7.671540
    13  C    7.076411   6.192496   6.824800   8.212045   8.833804
    14  Cl   8.828685   7.930154   8.497023   9.871932  10.401269
    15  C    6.472729   5.847569   6.736527   8.125616   8.946100
    16  N    5.204502   4.701085   5.723158   7.087481   8.026426
    17  C    4.334783   3.564839   4.449616   5.833910   6.707320
    18  N    2.985113   2.394729   3.521891   4.840107   5.890751
    19  C    2.508649   1.376527   2.252568   3.613947   4.596697
    20  H    1.095958   2.104801   2.880514   3.162034   4.518063
    21  H    1.091001   2.062495   3.390988   4.170999   5.531813
    22  H    1.095953   2.104714   2.879208   3.160168   4.516007
    23  H    2.918001   2.841179   2.169606   1.085419   2.164588
    24  H    5.220400   4.641656   3.371799   2.144036   1.086579
    25  H    6.336045   5.247720   3.865440   3.420672   2.158149
    26  H    5.859522   4.463019   3.426193   3.932936   3.421028
    27  H    7.225076   6.017499   6.200029   7.489482   7.789601
    28  H    7.235615   6.752347   7.723900   9.103217   9.975145
                    6          7          8          9         10
     6  C    0.000000
     7  C    1.392968   0.000000
     8  C    2.399500   1.396443   0.000000
     9  C    3.812087   2.613872   1.446386   0.000000
    10  N    4.639964   3.282595   2.517665   1.313557   0.000000
    11  C    5.935726   4.609550   3.672196   2.256047   1.366684
    12  C    7.011850   5.633606   4.899250   3.559305   2.396111
    13  C    8.275883   6.916518   6.061266   4.649477   3.636555
    14  Cl   9.722440   8.336124   7.627330   6.264011   5.126122
    15  C    8.603380   7.318878   6.252332   4.807257   4.113901
    16  N    7.851515   6.659621   5.454732   4.054174   3.701907
    17  C    6.494972   5.304251   4.099985   2.696354   2.466413
    18  N    5.942384   4.946069   3.589107   2.450206   2.897787
    19  C    4.641857   3.706629   2.322193   1.451113   2.417740
    20  H    5.402388   5.256819   4.133079   4.298354   5.497256
    21  H    6.167749   5.682720   4.346991   3.978527   4.975750
    22  H    5.400453   5.255247   4.131887   4.297861   5.496910
    23  H    3.431203   3.932538   3.443828   4.456960   5.755149
    24  H    2.156043   3.406268   3.863047   5.276061   6.363823
    25  H    1.085759   2.151223   3.387728   4.740141   5.412155
    26  H    2.166180   1.085816   2.155157   2.940070   3.163370
    27  H    6.954574   5.562147   5.085286   3.916428   2.615588
    28  H    9.673405   8.399659   7.309305   5.868099   5.202449
                   11         12         13         14         15
    11  C    0.000000
    12  C    1.414492   0.000000
    13  C    2.393716   1.373525   0.000000
    14  Cl   4.031214   2.730465   1.752724   0.000000
    15  C    2.747238   2.414501   1.418518   2.738485   0.000000
    16  N    2.446815   2.826906   2.409228   3.986387   1.316113
    17  C    1.441361   2.450109   2.746836   4.496670   2.298358
    18  N    2.448737   3.710956   4.109351   5.857521   3.518699
    19  C    2.649945   4.062059   4.817918   6.553795   4.538706
    20  H    5.790302   7.175294   7.761637   9.504638   7.160829
    21  H    4.907579   6.227490   6.599606   8.332570   5.818054
    22  H    5.790480   7.175509   7.762206   9.505190   7.161773
    23  H    6.588309   7.970718   8.906081  10.608706   8.671711
    24  H    7.527241   8.756404   9.919980  11.486469  10.015568
    25  H    6.753654   7.719412   9.031037  10.384825   9.469761
    26  H    4.528900   5.322507   6.670537   7.933410   7.275489
    27  H    2.160807   1.084641   2.160661   2.925922   3.418324
    28  H    3.835782   3.393050   2.169095   2.861114   1.088549
                   16         17         18         19         20
    16  N    0.000000
    17  C    1.358083   0.000000
    18  N    2.314542   1.363174   0.000000
    19  C    3.474401   2.240506   1.309372   0.000000
    20  H    5.899960   5.049205   3.729069   3.220088   0.000000
    21  H    4.510360   3.874164   2.527396   2.574232   1.783765
    22  H    5.901039   5.049914   3.729972   3.220284   1.785015
    23  H    7.542173   6.376858   5.234424   4.140290   2.756382
    24  H    9.070361   7.763539   6.893646   5.616640   5.103762
    25  H    8.794203   7.436491   6.968835   5.679443   6.439685
    26  H    6.799923   5.481345   5.388102   4.265883   6.211038
    27  H    3.911436   3.434770   4.599656   4.724068   7.868851
    28  H    2.056891   3.276753   4.370983   5.493075   7.907462
                   21         22         23         24         25
    21  H    0.000000
    22  H    1.783815   0.000000
    23  H    4.008998   2.754587   0.000000
    24  H    6.286842   5.101601   2.479745   0.000000
    25  H    7.251944   6.437654   4.315106   2.472481   0.000000
    26  H    6.493132   6.209568   5.018333   4.311527   2.499100
    27  H    7.067327   7.868807   8.369571   8.857222   7.533121
    28  H    6.475529   7.908600   9.592145  11.036842  10.550871
                   26         27         28
    26  H    0.000000
    27  H    5.051441   0.000000
    28  H    8.363835   4.315498   0.000000
 Stoichiometry    C14H9ClN4
 Framework group  C1[X(C14H9ClN4)]
 Deg. of freedom    78
 Full point group                 C1      NOp   1
 Largest Abelian subgroup         C1      NOp   1
 Largest concise Abelian subgroup C1      NOp   1
                         Standard orientation:                         
 ---------------------------------------------------------------------
 Center     Atomic      Atomic             Coordinates (Angstroms)
 Number     Number       Type             X           Y           Z
 ---------------------------------------------------------------------
      1          6           0        2.570634    2.801329    0.000537
      2          7           0        2.159312    1.410677   -0.000405
      3          6           0        3.004185    0.297214   -0.000157
      4          6           0        4.398231    0.260705   -0.000094
      5          6           0        5.010202   -0.994081    0.000092
      6          6           0        4.260944   -2.182371    0.000167
      7          6           0        2.868600   -2.140656    0.000077
      8          6           0        2.235369   -0.896039   -0.000071
      9          6           0        0.850144   -0.479885   -0.000144
     10          7           0       -0.267308   -1.170343   -0.000065
     11          6           0       -1.404909   -0.412920   -0.000068
     12          6           0       -2.661026   -1.063272   -0.000003
     13          6           0       -3.795406   -0.288837    0.000039
     14         17           0       -5.391047   -1.014074    0.000116
     15          6           0       -3.681279    1.125083    0.000026
     16          7           0       -2.528737    1.760536   -0.000038
     17          6           0       -1.384960    1.028304   -0.000099
     18          7           0       -0.214439    1.726961   -0.000214
     19          6           0        0.854818    0.971221   -0.000265
     20          1           0        3.163205    3.031498   -0.892215
     21          1           0        1.667725    3.413730    0.001795
     22          1           0        3.164610    3.029746    0.892798
     23          1           0        4.990314    1.170415   -0.000201
     24          1           0        6.095367   -1.049493    0.000157
     25          1           0        4.773998   -3.139266    0.000291
     26          1           0        2.276464   -3.050804    0.000136
     27          1           0       -2.693542   -2.147426    0.000014
     28          1           0       -4.585420    1.731275    0.000075
 ---------------------------------------------------------------------
 Rotational constants (GHZ):           0.9762121           0.1744718           0.1481570
 Standard basis: 6-31G(d) (6D, 7F)
 There are   307 symmetry adapted cartesian basis functions of A   symmetry.
 There are   307 symmetry adapted basis functions of A   symmetry.
   307 basis functions,   592 primitive gaussians,   307 cartesian basis functions
    69 alpha electrons       69 beta electrons
       nuclear repulsion energy      1393.0543081199 Hartrees.
 NAtoms=   28 NActive=   28 NUniq=   28 SFac= 1.00D+00 NAtFMM=   60 NAOKFM=F Big=F
 Integral buffers will be    131072 words long.
 Regular integral format.
 Two-electron integral symmetry is turned on.
 One-electron integrals computed using PRISM.
 NBasis=   307 RedAO= T EigKep=  3.29D-04  NBF=   307
 NBsUse=   307 1.00D-06 EigRej= -1.00D+00 NBFU=   307
 Initial guess from the checkpoint file:  "/home/junhkim/WORK/Review_DD/TADF-Design/data/td_dft/results/mol_410/Gau-3198235.chk"
 B after Tr=    -0.000000    0.000000   -0.000000
         Rot=    1.000000   -0.000000   -0.000000    0.000000 Ang=   0.00 deg.
 Requested convergence on RMS density matrix=1.00D-08 within  32 cycles.
 Requested convergence on MAX density matrix=1.00D-06.
 Requested convergence on             energy=1.00D-06.
 No special actions if energy rises.
 SCF Done:  E(RB3LYP) =  -1218.14100078     A.U. after    1 cycles
            NFock=  1  Conv=0.63D-08     -V/T= 2.0070
 QCSCF skips out because SCF is already converged.
 DoSCS=F DFT=T ScalE2(SS,OS)=  1.000000  1.000000
 ExpMin= 1.43D-01 ExpMax= 2.52D+04 ExpMxC= 3.78D+03 IAcc=3 IRadAn=         5 AccDes= 0.00D+00
 HarFok:  IExCor=  205 AccDes= 0.00D+00 IRadAn=         5 IDoV=-2 UseB2=F ITyADJ=14
 ICtDFT= 12500011 ScaDFX=  1.000000  1.000000  1.000000  1.000000
 GSVD:  LWork=        -713 too small for GESVD, short by        2990 words or        2990 for optimal perf.
 Range of M.O.s used for correlation:    24   307
 NBasis=   307 NAE=    69 NBE=    69 NFC=    23 NFV=     0
 NROrb=    284 NOA=    46 NOB=    46 NVA=   238 NVB=   238
 Orbital symmetries:
       Occupied  (A) (A) (A) (A) (A) (A) (A) (A) (A) (A) (A) (A)
                 (A) (A) (A) (A) (A) (A) (A) (A) (A) (A) (A) (A)
                 (A) (A) (A) (A) (A) (A) (A) (A) (A) (A) (A) (A)
                 (A) (A) (A) (A) (A) (A) (A) (A) (A) (A) (A) (A)
                 (A) (A) (A) (A) (A) (A) (A) (A) (A) (A) (A) (A)
                 (A) (A) (A) (A) (A) (A) (A) (A) (A)
       Virtual   (A) (A) (A) (A) (A) (A) (A) (A) (A) (A) (A) (A)
                 (A) (A) (A) (A) (A) (A) (A) (A) (A) (A) (A) (A)
                 (A) (A) (A) (A) (A) (A) (A) (A) (A) (A) (A) (A)
                 (A) (A) (A) (A) (A) (A) (A) (A) (A) (A) (A) (A)
                 (A) (A) (A) (A) (A) (A) (A) (A) (A) (A) (A) (A)
                 (A) (A) (A) (A) (A) (A) (A) (A) (A) (A) (A) (A)
                 (A) (A) (A) (A) (A) (A) (A) (A) (A) (A) (A) (A)
                 (A) (A) (A) (A) (A) (A) (A) (A) (A) (A) (A) (A)
                 (A) (A) (A) (A) (A) (A) (A) (A) (A) (A) (A) (A)
                 (A) (A) (A) (A) (A) (A) (A) (A) (A) (A) (A) (A)
                 (A) (A) (A) (A) (A) (A) (A) (A) (A) (A) (A) (A)
                 (A) (A) (A) (A) (A) (A) (A) (A) (A) (A) (A) (A)
                 (A) (A) (A) (A) (A) (A) (A) (A) (A) (A) (A) (A)
                 (A) (A) (A) (A) (A) (A) (A) (A) (A) (A) (A) (A)
                 (A) (A) (A) (A) (A) (A) (A) (A) (A) (A) (A) (A)
                 (A) (A) (A) (A) (A) (A) (A) (A) (A) (A) (A) (A)
                 (A) (A) (A) (A) (A) (A) (A) (A) (A) (A) (A) (A)
                 (A) (A) (A) (A) (A) (A) (A) (A) (A) (A) (A) (A)
                 (A) (A) (A) (A) (A) (A) (A) (A) (A) (A) (A) (A)
                 (A) (A) (A) (A) (A) (A) (A) (A) (A) (A)
     8 initial guesses have been made.
 Convergence on wavefunction:    0.001000000000000
 Iteration     1 Dimension     8 NMult     0 NNew      8
 CISAX will form     8 AO SS matrices at one time.
 New state      1 was old state      2
 New state      2 was old state      4
 New state      3 was old state      6
 New state      4 was old state      5
 Vector   2 SDiff=3.89D-04 TDiff=3.42D+00 assumed to be singlet.
 Vector   4 SDiff=3.76D+00 TDiff=1.83D-04 assumed to be triplet.
 Iteration     2 Dimension    12 NMult     8 NNew      4
 New state      2 was old state      4
 Iteration     3 Dimension    16 NMult    12 NNew      4
 Iteration     4 Dimension    20 NMult    16 NNew      4
 Iteration     5 Dimension    24 NMult    20 NNew      4
 No map to state      2
 Iteration     6 Dimension    28 NMult    24 NNew      4
 Iteration     7 Dimension    32 NMult    28 NNew      4
 Iteration     8 Dimension    34 NMult    32 NNew      2
 Iteration     9 Dimension    36 NMult    34 NNew      2
 Iteration    10 Dimension    38 NMult    36 NNew      2
 ***********************************************************************
 Excited states from <AA,BB:AA,BB> singles matrix:
 ***********************************************************************
 
 Ground to excited state transition densities written to RWF  633
 Ground to excited state transition electric dipole moments (Au):
       state          X           Y           Z        Dip. S.      Osc.
         1         0.0000      0.0000      0.0000      0.0000      0.0000
         2        -0.4803      0.4359      0.0001      0.4207      0.0320
 Ground to excited state transition velocity dipole moments (Au):
       state          X           Y           Z        Dip. S.      Osc.
         1         0.0000     -0.0000     -0.0000      0.0000      0.0000
         2         0.0502     -0.0641     -0.0001      0.0066      0.0388
 Ground to excited state transition magnetic dipole moments (Au):
       state          X           Y           Z
         1         0.0000     -0.0000     -0.0000
         2        -0.0005      0.0001     -0.5081
 Ground to excited state transition velocity quadrupole moments (Au):
       state          XX          YY          ZZ          XY          XZ          YZ
         1         0.0000      0.0000      0.0000     -0.0000      0.0000      0.0000
         2        -0.3208      0.0684      0.0060     -0.0876     -0.0002     -0.0005
 <0|del|b> * <b|rxdel|0> + <0|del|b> * <b|delr+rdel|0>
 Rotatory Strengths (R) in cgs (10**-40 erg-esu-cm/Gauss)
       state          XX          YY          ZZ    R(velocity)    E-M Angle
         1         0.0000     -0.0000      0.0000      0.0000       90.00
         2         0.0661     -0.0675      0.0308      0.0098       90.00
 1/2[<0|r|b>*<b|rxdel|0> + (<0|rxdel|b>*<b|r|0>)*]
 Rotatory Strengths (R) in cgs (10**-40 erg-esu-cm/Gauss)
       state          XX          YY          ZZ     R(length)
         1        -0.0000      0.0000      0.0000      0.0000
         2        -0.1566     -0.0306      0.0490     -0.0461
  1/2[<0|del|b>*<b|r|0> + (<0|r|b>*<b|del|0>)*] (Au)
       state          X           Y           Z        Dip. S.   Osc.(frdel)
         1         0.0000     -0.0000     -0.0000      0.0000      0.0000
         2        -0.0241     -0.0280     -0.0000      0.0521      0.0347

 Excitation energies and oscillator strengths:
 
 Excited State   1:      Triplet-A      2.4605 eV  503.90 nm  f=0.0000  <S**2>=2.000
      66 -> 70         0.15677
      68 -> 70         0.17748
      69 -> 70         0.64573
 This state for optimization and/or second-order correction.
 Total Energy, E(TD-HF/TD-DFT) =  -1218.05058025    
 Copying the excited state density for this state as the 1-particle RhoCI density.
 
 Excited State   2:      Singlet-A      3.1047 eV  399.34 nm  f=0.0320  <S**2>=0.000
      68 -> 70         0.10616
      69 -> 70         0.68960
 SavETr:  write IOETrn=   770 NScale= 10 NData=  16 NLR=1 NState=    2 LETran=      46.

 **********************************************************************

            Population analysis using the SCF Density.

 **********************************************************************

 Orbital symmetries:
       Occupied  (A) (A) (A) (A) (A) (A) (A) (A) (A) (A) (A) (A)
                 (A) (A) (A) (A) (A) (A) (A) (A) (A) (A) (A) (A)
                 (A) (A) (A) (A) (A) (A) (A) (A) (A) (A) (A) (A)
                 (A) (A) (A) (A) (A) (A) (A) (A) (A) (A) (A) (A)
                 (A) (A) (A) (A) (A) (A) (A) (A) (A) (A) (A) (A)
                 (A) (A) (A) (A) (A) (A) (A) (A) (A)
       Virtual   (A) (A) (A) (A) (A) (A) (A) (A) (A) (A) (A) (A)
                 (A) (A) (A) (A) (A) (A) (A) (A) (A) (A) (A) (A)
                 (A) (A) (A) (A) (A) (A) (A) (A) (A) (A) (A) (A)
                 (A) (A) (A) (A) (A) (A) (A) (A) (A) (A) (A) (A)
                 (A) (A) (A) (A) (A) (A) (A) (A) (A) (A) (A) (A)
                 (A) (A) (A) (A) (A) (A) (A) (A) (A) (A) (A) (A)
                 (A) (A) (A) (A) (A) (A) (A) (A) (A) (A) (A) (A)
                 (A) (A) (A) (A) (A) (A) (A) (A) (A) (A) (A) (A)
                 (A) (A) (A) (A) (A) (A) (A) (A) (A) (A) (A) (A)
                 (A) (A) (A) (A) (A) (A) (A) (A) (A) (A) (A) (A)
                 (A) (A) (A) (A) (A) (A) (A) (A) (A) (A) (A) (A)
                 (A) (A) (A) (A) (A) (A) (A) (A) (A) (A) (A) (A)
                 (A) (A) (A) (A) (A) (A) (A) (A) (A) (A) (A) (A)
                 (A) (A) (A) (A) (A) (A) (A) (A) (A) (A) (A) (A)
                 (A) (A) (A) (A) (A) (A) (A) (A) (A) (A) (A) (A)
                 (A) (A) (A) (A) (A) (A) (A) (A) (A) (A) (A) (A)
                 (A) (A) (A) (A) (A) (A) (A) (A) (A) (A) (A) (A)
                 (A) (A) (A) (A) (A) (A) (A) (A) (A) (A) (A) (A)
                 (A) (A) (A) (A) (A) (A) (A) (A) (A) (A) (A) (A)
                 (A) (A) (A) (A) (A) (A) (A) (A) (A) (A)
 The electronic state is 1-A.
 Alpha  occ. eigenvalues -- -101.55594 -14.39776 -14.35482 -14.34641 -14.33995
 Alpha  occ. eigenvalues --  -10.27417 -10.26495 -10.26127 -10.24654 -10.24521
 Alpha  occ. eigenvalues --  -10.24268 -10.24171 -10.23744 -10.21955 -10.20930
 Alpha  occ. eigenvalues --  -10.20787 -10.20779 -10.20652 -10.19924  -9.47209
 Alpha  occ. eigenvalues --   -7.23614  -7.22632  -7.22601  -1.02510  -0.98153
 Alpha  occ. eigenvalues --   -0.94391  -0.91869  -0.87622  -0.86130  -0.81439
 Alpha  occ. eigenvalues --   -0.78438  -0.76612  -0.74891  -0.71992  -0.68297
 Alpha  occ. eigenvalues --   -0.65218  -0.63704  -0.61311  -0.59902  -0.56893
 Alpha  occ. eigenvalues --   -0.55271  -0.52593  -0.51726  -0.48916  -0.48901
 Alpha  occ. eigenvalues --   -0.48600  -0.47075  -0.45459  -0.44907  -0.44769
 Alpha  occ. eigenvalues --   -0.43989  -0.42177  -0.41571  -0.41275  -0.40188
 Alpha  occ. eigenvalues --   -0.38120  -0.37874  -0.36526  -0.35968  -0.34960
 Alpha  occ. eigenvalues --   -0.32589  -0.32068  -0.30997  -0.29328  -0.28479
 Alpha  occ. eigenvalues --   -0.26444  -0.24817  -0.23885  -0.22183
 Alpha virt. eigenvalues --   -0.08634  -0.03303  -0.01300   0.00026   0.01369
 Alpha virt. eigenvalues --    0.02706   0.08380   0.08872   0.10060   0.13465
 Alpha virt. eigenvalues --    0.13804   0.14532   0.14601   0.14788   0.15632
 Alpha virt. eigenvalues --    0.16913   0.16927   0.17817   0.18714   0.20376
 Alpha virt. eigenvalues --    0.21378   0.23307   0.23994   0.25426   0.26698
 Alpha virt. eigenvalues --    0.28306   0.28848   0.31277   0.31798   0.34268
 Alpha virt. eigenvalues --    0.35032   0.36486   0.37122   0.39599   0.40014
 Alpha virt. eigenvalues --    0.41217   0.41750   0.43779   0.45673   0.46459
 Alpha virt. eigenvalues --    0.47745   0.48096   0.49628   0.50628   0.50952
 Alpha virt. eigenvalues --    0.52241   0.53733   0.53913   0.54483   0.54777
 Alpha virt. eigenvalues --    0.54853   0.56382   0.57804   0.58107   0.58356
 Alpha virt. eigenvalues --    0.59229   0.59562   0.59796   0.60184   0.61909
 Alpha virt. eigenvalues --    0.62963   0.62966   0.64379   0.65129   0.65356
 Alpha virt. eigenvalues --    0.65490   0.68212   0.68543   0.69412   0.71753
 Alpha virt. eigenvalues --    0.72912   0.73496   0.75533   0.78519   0.79087
 Alpha virt. eigenvalues --    0.79459   0.80692   0.81356   0.81469   0.82729
 Alpha virt. eigenvalues --    0.82893   0.83174   0.83954   0.84414   0.85828
 Alpha virt. eigenvalues --    0.86359   0.87333   0.88145   0.88569   0.89995
 Alpha virt. eigenvalues --    0.91059   0.91515   0.93842   0.94136   0.94352
 Alpha virt. eigenvalues --    0.94527   0.94615   0.96120   0.96473   0.98522
 Alpha virt. eigenvalues --    1.00384   1.01457   1.04205   1.07664   1.09410
 Alpha virt. eigenvalues --    1.09810   1.12840   1.14634   1.16926   1.17198
 Alpha virt. eigenvalues --    1.19541   1.19597   1.23322   1.23577   1.25147
 Alpha virt. eigenvalues --    1.26673   1.30134   1.30175   1.30264   1.31956
 Alpha virt. eigenvalues --    1.33563   1.33681   1.36505   1.38460   1.39254
 Alpha virt. eigenvalues --    1.41628   1.43501   1.43684   1.46179   1.46264
 Alpha virt. eigenvalues --    1.47664   1.48289   1.48705   1.49183   1.51119
 Alpha virt. eigenvalues --    1.53433   1.58901   1.63109   1.64997   1.67615
 Alpha virt. eigenvalues --    1.69916   1.72185   1.73920   1.76219   1.76799
 Alpha virt. eigenvalues --    1.79228   1.79249   1.79987   1.82742   1.84730
 Alpha virt. eigenvalues --    1.85068   1.85491   1.87740   1.88691   1.91276
 Alpha virt. eigenvalues --    1.92973   1.95172   1.95366   1.96413   1.99098
 Alpha virt. eigenvalues --    2.01039   2.02685   2.03066   2.05087   2.08619
 Alpha virt. eigenvalues --    2.10108   2.11776   2.12962   2.13577   2.16490
 Alpha virt. eigenvalues --    2.17316   2.18521   2.20438   2.20862   2.21307
 Alpha virt. eigenvalues --    2.23860   2.26003   2.26472   2.27476   2.31182
 Alpha virt. eigenvalues --    2.32791   2.33276   2.34315   2.37030   2.37208
 Alpha virt. eigenvalues --    2.39793   2.41944   2.43673   2.47370   2.51344
 Alpha virt. eigenvalues --    2.51373   2.53228   2.58876   2.59351   2.60887
 Alpha virt. eigenvalues --    2.62727   2.63245   2.64820   2.65038   2.67182
 Alpha virt. eigenvalues --    2.67544   2.69699   2.73262   2.75693   2.76975
 Alpha virt. eigenvalues --    2.79485   2.80792   2.83770   2.86015   2.88497
 Alpha virt. eigenvalues --    2.96771   2.99226   3.02634   3.06464   3.22217
 Alpha virt. eigenvalues --    3.26075   3.37710   3.44105   3.53600   4.02968
 Alpha virt. eigenvalues --    4.03329   4.06540   4.07641   4.11054   4.13920
 Alpha virt. eigenvalues --    4.16947   4.19414   4.24711   4.28206   4.30875
 Alpha virt. eigenvalues --    4.36392   4.41768   4.43553   4.51680   4.63388
 Alpha virt. eigenvalues --    4.67677   4.77021   4.85735
          Condensed to atoms (all electrons):
               1          2          3          4          5          6
     1  C    4.998455   0.289821  -0.042880  -0.002987  -0.000129   0.000009
     2  N    0.289821   7.152255   0.273776  -0.093055   0.005609  -0.000254
     3  C   -0.042880   0.273776   4.700939   0.485777   0.002862  -0.041582
     4  C   -0.002987  -0.093055   0.485777   5.077848   0.512628  -0.026494
     5  C   -0.000129   0.005609   0.002862   0.512628   4.863542   0.526403
     6  C    0.000009  -0.000254  -0.041582  -0.026494   0.526403   4.911673
     7  C   -0.000072   0.009539  -0.067927  -0.054348  -0.023329   0.487547
     8  C    0.004436  -0.031375   0.456449  -0.054443  -0.039011   0.000939
     9  C    0.006751  -0.083403   0.022529   0.014766  -0.000098   0.009111
    10  N   -0.000095   0.006490   0.008043  -0.000126   0.000005   0.000169
    11  C   -0.000020   0.001088   0.000069   0.000007   0.000000   0.000004
    12  C    0.000000   0.000010   0.000007  -0.000000  -0.000000  -0.000000
    13  C   -0.000000   0.000000  -0.000000   0.000000   0.000000  -0.000000
    14  Cl  -0.000000  -0.000000   0.000000  -0.000000  -0.000000  -0.000000
    15  C    0.000000   0.000000  -0.000000   0.000000   0.000000  -0.000000
    16  N    0.000005  -0.000046  -0.000001  -0.000000   0.000000  -0.000000
    17  C    0.000060   0.002417  -0.000260  -0.000002   0.000000  -0.000000
    18  N   -0.006850  -0.080161  -0.000079  -0.000178   0.000002   0.000000
    19  C   -0.036053   0.280767  -0.092835   0.002769  -0.000140  -0.000365
    20  H    0.374937  -0.040811  -0.000619   0.002531   0.000000  -0.000001
    21  H    0.375764  -0.032745   0.001965   0.000067   0.000001  -0.000000
    22  H    0.374904  -0.040813  -0.000622   0.002544   0.000000  -0.000001
    23  H    0.004564  -0.008155  -0.035641   0.351860  -0.040875   0.004114
    24  H   -0.000001  -0.000106   0.002714  -0.039006   0.359352  -0.039019
    25  H   -0.000000   0.000004   0.001011   0.004337  -0.039466   0.360650
    26  H    0.000003  -0.000097   0.004806   0.000374   0.004333  -0.045466
    27  H    0.000000  -0.000000  -0.000000  -0.000000   0.000000   0.000000
    28  H    0.000000  -0.000000  -0.000000  -0.000000   0.000000  -0.000000
               7          8          9         10         11         12
     1  C   -0.000072   0.004436   0.006751  -0.000095  -0.000020   0.000000
     2  N    0.009539  -0.031375  -0.083403   0.006490   0.001088   0.000010
     3  C   -0.067927   0.456449   0.022529   0.008043   0.000069   0.000007
     4  C   -0.054348  -0.054443   0.014766  -0.000126   0.000007  -0.000000
     5  C   -0.023329  -0.039011  -0.000098   0.000005   0.000000  -0.000000
     6  C    0.487547   0.000939   0.009111   0.000169   0.000004  -0.000000
     7  C    5.097028   0.497615  -0.104577  -0.005053  -0.000063  -0.000003
     8  C    0.497615   4.950709   0.234749  -0.088490   0.000864  -0.000597
     9  C   -0.104577   0.234749   5.087968   0.458796  -0.045202  -0.000403
    10  N   -0.005053  -0.088490   0.458796   7.053951   0.370840  -0.066345
    11  C   -0.000063   0.000864  -0.045202   0.370840   4.779210   0.454201
    12  C   -0.000003  -0.000597  -0.000403  -0.066345   0.454201   5.104820
    13  C   -0.000000   0.000005  -0.000154   0.005583  -0.004628   0.504226
    14  Cl  -0.000000  -0.000000   0.000000  -0.000071   0.003885  -0.065950
    15  C    0.000000  -0.000000   0.000115   0.000028  -0.023569  -0.045893
    16  N   -0.000000   0.000023   0.000431   0.005357  -0.065929  -0.039296
    17  C    0.000010   0.004179  -0.027532  -0.058782   0.377404  -0.068207
    18  N   -0.000073   0.008356  -0.056916  -0.018855  -0.097799   0.004167
    19  C    0.016428  -0.020668   0.273225  -0.095918  -0.010319   0.002503
    20  H   -0.000007  -0.000127  -0.000031   0.000002   0.000001  -0.000000
    21  H    0.000007  -0.000040   0.000393  -0.000012   0.000037  -0.000000
    22  H   -0.000008  -0.000127  -0.000030   0.000002   0.000001  -0.000000
    23  H    0.000474   0.004382  -0.000242   0.000001  -0.000000   0.000000
    24  H    0.004190   0.001022   0.000010  -0.000000   0.000000  -0.000000
    25  H   -0.036799   0.001704  -0.000207  -0.000000  -0.000000  -0.000000
    26  H    0.358381  -0.035098  -0.008236   0.003763  -0.000016  -0.000003
    27  H    0.000005  -0.000011   0.000597  -0.000322  -0.029186   0.350518
    28  H   -0.000000   0.000000   0.000002   0.000008   0.000453   0.002927
              13         14         15         16         17         18
     1  C   -0.000000  -0.000000   0.000000   0.000005   0.000060  -0.006850
     2  N    0.000000  -0.000000   0.000000  -0.000046   0.002417  -0.080161
     3  C   -0.000000   0.000000  -0.000000  -0.000001  -0.000260  -0.000079
     4  C    0.000000  -0.000000   0.000000  -0.000000  -0.000002  -0.000178
     5  C    0.000000  -0.000000   0.000000   0.000000   0.000000   0.000002
     6  C   -0.000000  -0.000000  -0.000000  -0.000000  -0.000000   0.000000
     7  C   -0.000000  -0.000000   0.000000  -0.000000   0.000010  -0.000073
     8  C    0.000005  -0.000000  -0.000000   0.000023   0.004179   0.008356
     9  C   -0.000154   0.000000   0.000115   0.000431  -0.027532  -0.056916
    10  N    0.005583  -0.000071   0.000028   0.005357  -0.058782  -0.018855
    11  C   -0.004628   0.003885  -0.023569  -0.065929   0.377404  -0.097799
    12  C    0.504226  -0.065950  -0.045893  -0.039296  -0.068207   0.004167
    13  C    5.113872   0.222086   0.419335  -0.017398  -0.033390   0.000185
    14  Cl   0.222086  16.891462  -0.052574   0.003798   0.000647   0.000012
    15  C    0.419335  -0.052574   4.847070   0.471987  -0.053692   0.003242
    16  N   -0.017398   0.003798   0.471987   6.863390   0.379112  -0.086085
    17  C   -0.033390   0.000647  -0.053692   0.379112   4.710471   0.397004
    18  N    0.000185   0.000012   0.003242  -0.086085   0.397004   7.036067
    19  C    0.000003  -0.000001  -0.000027  -0.000780  -0.049333   0.422919
    20  H    0.000000  -0.000000  -0.000000  -0.000000  -0.000000   0.000359
    21  H   -0.000000  -0.000000   0.000001  -0.000035   0.000030   0.016150
    22  H    0.000000  -0.000000  -0.000000  -0.000000  -0.000000   0.000359
    23  H   -0.000000   0.000000  -0.000000  -0.000000  -0.000000   0.000001
    24  H    0.000000  -0.000000  -0.000000  -0.000000   0.000000  -0.000000
    25  H    0.000000   0.000000   0.000000  -0.000000  -0.000000  -0.000000
    26  H    0.000000  -0.000000   0.000000  -0.000000   0.000002   0.000000
    27  H   -0.047087  -0.001846   0.004408  -0.000524   0.005528  -0.000123
    28  H   -0.067238   0.005421   0.381191  -0.049651   0.004156  -0.000076
              19         20         21         22         23         24
     1  C   -0.036053   0.374937   0.375764   0.374904   0.004564  -0.000001
     2  N    0.280767  -0.040811  -0.032745  -0.040813  -0.008155  -0.000106
     3  C   -0.092835  -0.000619   0.001965  -0.000622  -0.035641   0.002714
     4  C    0.002769   0.002531   0.000067   0.002544   0.351860  -0.039006
     5  C   -0.000140   0.000000   0.000001   0.000000  -0.040875   0.359352
     6  C   -0.000365  -0.000001  -0.000000  -0.000001   0.004114  -0.039019
     7  C    0.016428  -0.000007   0.000007  -0.000008   0.000474   0.004190
     8  C   -0.020668  -0.000127  -0.000040  -0.000127   0.004382   0.001022
     9  C    0.273225  -0.000031   0.000393  -0.000030  -0.000242   0.000010
    10  N   -0.095918   0.000002  -0.000012   0.000002   0.000001  -0.000000
    11  C   -0.010319   0.000001   0.000037   0.000001  -0.000000   0.000000
    12  C    0.002503  -0.000000  -0.000000  -0.000000   0.000000  -0.000000
    13  C    0.000003   0.000000  -0.000000   0.000000  -0.000000   0.000000
    14  Cl  -0.000001  -0.000000  -0.000000  -0.000000   0.000000  -0.000000
    15  C   -0.000027  -0.000000   0.000001  -0.000000  -0.000000  -0.000000
    16  N   -0.000780  -0.000000  -0.000035  -0.000000  -0.000000  -0.000000
    17  C   -0.049333  -0.000000   0.000030  -0.000000  -0.000000   0.000000
    18  N    0.422919   0.000359   0.016150   0.000359   0.000001  -0.000000
    19  C    4.753042   0.000970  -0.002370   0.000973  -0.000008   0.000001
    20  H    0.000970   0.555244  -0.023446  -0.041739   0.000649  -0.000000
    21  H   -0.002370  -0.023446   0.473781  -0.023410  -0.000047  -0.000000
    22  H    0.000973  -0.041739  -0.023410   0.555242   0.000655  -0.000000
    23  H   -0.000008   0.000649  -0.000047   0.000655   0.583671  -0.005053
    24  H    0.000001  -0.000000  -0.000000  -0.000000  -0.005053   0.582650
    25  H    0.000005   0.000000  -0.000000   0.000000  -0.000157  -0.005152
    26  H    0.000099  -0.000000  -0.000000  -0.000000   0.000016  -0.000165
    27  H    0.000036  -0.000000   0.000000  -0.000000   0.000000  -0.000000
    28  H   -0.000006  -0.000000  -0.000000  -0.000000  -0.000000  -0.000000
              25         26         27         28
     1  C   -0.000000   0.000003   0.000000   0.000000
     2  N    0.000004  -0.000097  -0.000000  -0.000000
     3  C    0.001011   0.004806  -0.000000  -0.000000
     4  C    0.004337   0.000374  -0.000000  -0.000000
     5  C   -0.039466   0.004333   0.000000   0.000000
     6  C    0.360650  -0.045466   0.000000  -0.000000
     7  C   -0.036799   0.358381   0.000005  -0.000000
     8  C    0.001704  -0.035098  -0.000011   0.000000
     9  C   -0.000207  -0.008236   0.000597   0.000002
    10  N   -0.000000   0.003763  -0.000322   0.000008
    11  C   -0.000000  -0.000016  -0.029186   0.000453
    12  C   -0.000000  -0.000003   0.350518   0.002927
    13  C    0.000000   0.000000  -0.047087  -0.067238
    14  Cl   0.000000  -0.000000  -0.001846   0.005421
    15  C    0.000000   0.000000   0.004408   0.381191
    16  N   -0.000000  -0.000000  -0.000524  -0.049651
    17  C   -0.000000   0.000002   0.005528   0.004156
    18  N   -0.000000   0.000000  -0.000123  -0.000076
    19  C    0.000005   0.000099   0.000036  -0.000006
    20  H    0.000000  -0.000000  -0.000000  -0.000000
    21  H   -0.000000  -0.000000   0.000000  -0.000000
    22  H    0.000000  -0.000000  -0.000000  -0.000000
    23  H   -0.000157   0.000016   0.000000  -0.000000
    24  H   -0.005152  -0.000165  -0.000000  -0.000000
    25  H    0.581964  -0.004285   0.000000   0.000000
    26  H   -0.004285   0.565535   0.000005  -0.000000
    27  H    0.000000   0.000005   0.541694  -0.000153
    28  H    0.000000  -0.000000  -0.000153   0.556002
 Mulliken charges:
               1
     1  C   -0.340623
     2  N   -0.610756
     3  C    0.321501
     4  C   -0.184867
     5  C   -0.131689
     6  C   -0.147437
     7  C   -0.178964
     8  C    0.104555
     9  C    0.217589
    10  N   -0.578968
    11  C    0.288670
    12  C   -0.136683
    13  C   -0.095403
    14  Cl  -0.006869
    15  C    0.048377
    16  N   -0.464358
    17  C    0.410179
    18  N   -0.541629
    19  C    0.555084
    20  H    0.172091
    21  H    0.213909
    22  H    0.172071
    23  H    0.139790
    24  H    0.138562
    25  H    0.136391
    26  H    0.156049
    27  H    0.176462
    28  H    0.166964
 Sum of Mulliken charges =  -0.00000
 Mulliken charges with hydrogens summed into heavy atoms:
               1
     1  C    0.217448
     2  N   -0.610756
     3  C    0.321501
     4  C   -0.045077
     5  C    0.006873
     6  C   -0.011046
     7  C   -0.022915
     8  C    0.104555
     9  C    0.217589
    10  N   -0.578968
    11  C    0.288670
    12  C    0.039779
    13  C   -0.095403
    14  Cl  -0.006869
    15  C    0.215341
    16  N   -0.464358
    17  C    0.410179
    18  N   -0.541629
    19  C    0.555084
 Electronic spatial extent (au):  <R**2>=           6647.4767
 Charge=             -0.0000 electrons
 Dipole moment (field-independent basis, Debye):
    X=              4.3295    Y=             -0.0266    Z=              0.0011  Tot=              4.3296
 Quadrupole moment (field-independent basis, Debye-Ang):
   XX=           -102.0237   YY=           -110.8422   ZZ=           -115.8836
   XY=              4.8741   XZ=              0.0026   YZ=              0.0026
 Traceless Quadrupole moment (field-independent basis, Debye-Ang):
   XX=              7.5595   YY=             -1.2590   ZZ=             -6.3004
   XY=              4.8741   XZ=              0.0026   YZ=              0.0026
 Octapole moment (field-independent basis, Debye-Ang**2):
  XXX=             78.8353  YYY=            -12.5241  ZZZ=             -0.0002  XYY=             31.8813
  XXY=             16.8459  XXZ=              0.0087  XZZ=            -13.5045  YZZ=              5.3873
  YYZ=              0.0097  XYZ=              0.0009
 Hexadecapole moment (field-independent basis, Debye-Ang**3):
 XXXX=          -6952.8937 YYYY=          -1421.2842 ZZZZ=           -122.0406 XXXY=            -58.2757
 XXXZ=              0.0337 YYYX=             71.1442 YYYZ=              0.0133 ZZZX=             -0.0023
 ZZZY=             -0.0008 XXYY=          -1342.9274 XXZZ=          -1301.2311 YYZZ=           -275.4824
 XXYZ=             -0.0007 YYXZ=              0.0104 ZZXY=             24.6112
 N-N= 1.393054308120D+03 E-N=-5.637767141825D+03  KE= 1.209629603119D+03
 1\1\GINC-CNODE8\SP\RB3LYP TD-FC\6-31G(d)\C14H9Cl1N4\JUNHKIM\19-Jan-202
 6\0\\# b3lyp/6-31g* TD=(Nstates=1,50-50) Geom=Check Guess=Read SCF=XQC
 \\TD-DFT calculation\\0,1\C,0,-1.6240488444,-2.6831283707,-0.098426215
 8\N,0,-1.2268094856,-1.288903437,-0.0605228968\C,0,-2.0824656113,-0.18
 37065871,-0.0623350829\C,0,-3.476261096,-0.1603949935,-0.1009268371\C,
 0,-4.1005320133,1.0882947836,-0.0934566022\C,0,-3.3635087675,2.2833833
 027,-0.04895465\C,0,-1.9713629596,2.2548514526,-0.010539888\C,0,-1.325
 9437,1.0165287101,-0.0171733973\C,0,0.0628361862,0.6135804763,0.013726
 5636\N,0,1.1728758577,1.3144411677,0.0588832067\C,0,2.3175572657,0.567
 962228,0.0761777516\C,0,3.5666020004,1.2300387141,0.1244506565\C,0,4.7
 082338722,0.4665203738,0.141366759\Cl,0,6.2959020651,1.2066751308,0.20
 07069316\C,0,4.6083182845,-0.9481364814,0.1104467506\N,0,3.4626532052,
 -1.5943378684,0.0653909677\C,0,2.312052252,-0.8731007354,0.0473655373\
 N,0,1.149050074,-1.582660139,0.0005138012\C,0,0.0727005149,-0.83721613
 88,-0.0149381114\H,0,-2.1890104017,-2.9011228118,-1.011892471\H,0,-0.7
 15442166,-3.2868653297,-0.0836598178\H,0,-2.2405013357,-2.9348234708,0
 .7720609644\H,0,-4.05896729,-1.0754839015,-0.1355673596\H,0,-5.1857726
 01,1.1334269181,-0.1229528589\H,0,-3.8859221889,3.2351907355,-0.044584
 7718\H,0,-1.3886057343,3.1703797443,0.0240625297\H,0,3.5882462288,2.31
 42372785,0.1466139048\H,0,5.5181273884,-1.545629751,0.124161636\\Versi
 on=ES64L-G16RevB.01\State=1-A\HF=-1218.1410008\RMSD=6.304e-09\PG=C01 [
 X(C14H9Cl1N4)]\\@


 Sacred cows make the best hamburger.
                               -- Mark Twain
 Job cpu time:       0 days  0 hours 27 minutes 46.8 seconds.
 Elapsed time:       0 days  0 hours  1 minutes 44.3 seconds.
 File lengths (MBytes):  RWF=    549 Int=      0 D2E=      0 Chk=     67 Scr=      2
 Normal termination of Gaussian 16 at Mon Jan 19 00:03:25 2026.
