 Entering Gaussian System, Link 0=g16
 Initial command:
 /appl/Gaussian16/AVX_revB01/g16/l1.exe "/home/junhkim/WORK/Review_DD/TADF-Design/data/td_dft/results/mol_324/Gau-2566239.inp" -scrdir="/home/junhkim/WORK/Review_DD/TADF-Design/data/td_dft/results/mol_324/"
 Entering Link 1 = /appl/Gaussian16/AVX_revB01/g16/l1.exe PID=   2566241.
  
 Copyright (c) 1988-2017, Gaussian, Inc.  All Rights Reserved.
  
 This is part of the Gaussian(R) 16 program.  It is based on
 the Gaussian(R) 09 system (copyright 2009, Gaussian, Inc.),
 the Gaussian(R) 03 system (copyright 2003, Gaussian, Inc.),
 the Gaussian(R) 98 system (copyright 1998, Gaussian, Inc.),
 the Gaussian(R) 94 system (copyright 1995, Gaussian, Inc.),
 the Gaussian 92(TM) system (copyright 1992, Gaussian, Inc.),
 the Gaussian 90(TM) system (copyright 1990, Gaussian, Inc.),
 the Gaussian 88(TM) system (copyright 1988, Gaussian, Inc.),
 the Gaussian 86(TM) system (copyright 1986, Carnegie Mellon
 University), and the Gaussian 82(TM) system (copyright 1983,
 Carnegie Mellon University). Gaussian is a federally registered
 trademark of Gaussian, Inc.
  
 This software contains proprietary and confidential information,
 including trade secrets, belonging to Gaussian, Inc.
  
 This software is provided under written license and may be
 used, copied, transmitted, or stored only in accord with that
 written license.
  
 The following legend is applicable only to US Government
 contracts under FAR:
  
                    RESTRICTED RIGHTS LEGEND
  
 Use, reproduction and disclosure by the US Government is
 subject to restrictions as set forth in subparagraphs (a)
 and (c) of the Commercial Computer Software - Restricted
 Rights clause in FAR 52.227-19.
  
 Gaussian, Inc.
 340 Quinnipiac St., Bldg. 40, Wallingford CT 06492
  
  
 ---------------------------------------------------------------
 Warning -- This program may not be used in any manner that
 competes with the business of Gaussian, Inc. or will provide
 assistance to any competitor of Gaussian, Inc.  The licensee
 of this program is prohibited from giving any competitor of
 Gaussian, Inc. access to this program.  By using this program,
 the user acknowledges that Gaussian, Inc. is engaged in the
 business of creating and licensing software in the field of
 computational chemistry and represents and warrants to the
 licensee that it is not a competitor of Gaussian, Inc. and that
 it will not use this program in any manner prohibited above.
 ---------------------------------------------------------------
  

 Cite this work as:
 Gaussian 16, Revision B.01,
 M. J. Frisch, G. W. Trucks, H. B. Schlegel, G. E. Scuseria, 
 M. A. Robb, J. R. Cheeseman, G. Scalmani, V. Barone, 
 G. A. Petersson, H. Nakatsuji, X. Li, M. Caricato, A. V. Marenich, 
 J. Bloino, B. G. Janesko, R. Gomperts, B. Mennucci, H. P. Hratchian, 
 J. V. Ortiz, A. F. Izmaylov, J. L. Sonnenberg, D. Williams-Young, 
 F. Ding, F. Lipparini, F. Egidi, J. Goings, B. Peng, A. Petrone, 
 T. Henderson, D. Ranasinghe, V. G. Zakrzewski, J. Gao, N. Rega, 
 G. Zheng, W. Liang, M. Hada, M. Ehara, K. Toyota, R. Fukuda, 
 J. Hasegawa, M. Ishida, T. Nakajima, Y. Honda, O. Kitao, H. Nakai, 
 T. Vreven, K. Throssell, J. A. Montgomery, Jr., J. E. Peralta, 
 F. Ogliaro, M. J. Bearpark, J. J. Heyd, E. N. Brothers, K. N. Kudin, 
 V. N. Staroverov, T. A. Keith, R. Kobayashi, J. Normand, 
 K. Raghavachari, A. P. Rendell, J. C. Burant, S. S. Iyengar, 
 J. Tomasi, M. Cossi, J. M. Millam, M. Klene, C. Adamo, R. Cammi, 
 J. W. Ochterski, R. L. Martin, K. Morokuma, O. Farkas, 
 J. B. Foresman, and D. J. Fox, Gaussian, Inc., Wallingford CT, 2016.
 
 ******************************************
 Gaussian 16:  ES64L-G16RevB.01 20-Dec-2017
                19-Jan-2026 
 ******************************************
 %mem=60GB
 %chk=opt.chk
 %nprocshared=16
 Will use up to   16 processors via shared memory.
 ---------------------------
 #P b3lyp/6-31g* opt SCF=XQC
 ---------------------------
 1/18=20,19=15,26=3,38=1/1,3;
 2/9=110,12=2,17=6,18=5,40=1/2;
 3/5=1,6=6,7=1,11=2,25=1,30=1,71=1,74=-5/1,2,3;
 4//1;
 5/5=2,8=3,13=1,38=5/2,8;
 6/7=2,8=2,9=2,10=2,28=1/1;
 7//1,2,3,16;
 1/18=20,19=15,26=3/3(2);
 2/9=110/2;
 99//99;
 2/9=110/2;
 3/5=1,6=6,7=1,11=2,25=1,30=1,71=1,74=-5/1,2,3;
 4/5=5,16=3,69=1/1;
 5/5=2,8=3,13=1,38=5/2,8;
 7//1,2,3,16;
 1/18=20,19=15,26=3/3(-5);
 2/9=110/2;
 6/7=2,8=2,9=2,10=2,19=2,28=1/1;
 99/9=1/99;
 Leave Link    1 at Mon Jan 19 00:01:10 2026, MaxMem=  8053063680 cpu:               1.1 elap:               0.1
 (Enter /appl/Gaussian16/AVX_revB01/g16/l101.exe)
 ------------------------------
 Gaussian input prepared by ASE
 ------------------------------
 Symbolic Z-matrix:
 Charge =  0 Multiplicity = 1
 C                    -1.74408   2.56141   0.47456 
 N                    -1.28707   1.20747   0.32669 
 C                    -2.08047   0.08091   0.203 
 C                    -3.46172  -0.01507   0.18874 
 C                    -4.018    -1.27581   0.0507 
 C                    -3.22682  -2.41489  -0.07048 
 C                    -1.84748  -2.32792  -0.0573 
 C                    -1.27017  -1.07335   0.08014 
 C                     0.0873   -0.61212   0.13357 
 N                     1.23003  -1.23929   0.06846 
 C                     2.32323  -0.44727   0.1571 
 C                     3.60166  -1.03131   0.09707 
 C                     4.69022  -0.20621   0.1893 
 Br                    6.45342  -0.91162   0.11735 
 C                     4.51064   1.18155   0.33931 
 N                     3.33979   1.74202   0.39707 
 C                     2.23894   0.97641   0.3112 
 N                     1.05343   1.61363   0.37711 
 C                     0.01099   0.82679   0.28922 
 H                    -2.34718   2.6653    1.37896 
 H                    -2.34098   2.86062  -0.38952 
 H                    -0.86406   3.19742   0.54787 
 H                    -4.08576   0.86002   0.28181 
 H                    -5.09297  -1.3768    0.03676 
 H                    -3.7019   -3.37816  -0.17614 
 H                    -1.22303  -3.20204  -0.15023 
 H                     3.68533  -2.1011   -0.01863 
 H                     5.36668   1.83937   0.41286 
 
 ITRead=  0  0  0  0  0  0  0  0  0  0  0  0  0  0  0  0  0  0  0  0
 ITRead=  0  0  0  0  0  0  0  0
 MicOpt= -1 -1 -1 -1 -1 -1 -1 -1 -1 -1 -1 -1 -1 -1 -1 -1 -1 -1 -1 -1
 MicOpt= -1 -1 -1 -1 -1 -1 -1 -1
 NAtoms=     28 NQM=       28 NQMF=       0 NMMI=      0 NMMIF=      0
                NMic=       0 NMicF=      0.
                    Isotopes and Nuclear Properties:
 (Nuclear quadrupole moments (NQMom) in fm**2, nuclear magnetic moments (NMagM)
  in nuclear magnetons)

  Atom         1           2           3           4           5           6           7           8           9          10
 IAtWgt=          12          14          12          12          12          12          12          12          12          14
 AtmWgt=  12.0000000  14.0030740  12.0000000  12.0000000  12.0000000  12.0000000  12.0000000  12.0000000  12.0000000  14.0030740
 NucSpn=           0           2           0           0           0           0           0           0           0           2
 AtZEff=  -0.0000000  -0.0000000  -0.0000000  -0.0000000  -0.0000000  -0.0000000  -0.0000000  -0.0000000  -0.0000000  -0.0000000
 NQMom=    0.0000000   2.0440000   0.0000000   0.0000000   0.0000000   0.0000000   0.0000000   0.0000000   0.0000000   2.0440000
 NMagM=    0.0000000   0.4037610   0.0000000   0.0000000   0.0000000   0.0000000   0.0000000   0.0000000   0.0000000   0.4037610
 AtZNuc=   6.0000000   7.0000000   6.0000000   6.0000000   6.0000000   6.0000000   6.0000000   6.0000000   6.0000000   7.0000000

  Atom        11          12          13          14          15          16          17          18          19          20
 IAtWgt=          12          12          12          79          12          14          12          14          12           1
 AtmWgt=  12.0000000  12.0000000  12.0000000  78.9183361  12.0000000  14.0030740  12.0000000  14.0030740  12.0000000   1.0078250
 NucSpn=           0           0           0           3           0           2           0           2           0           1
 AtZEff=  -0.0000000  -0.0000000  -0.0000000  -0.0000000  -0.0000000  -0.0000000  -0.0000000  -0.0000000  -0.0000000  -0.0000000
 NQMom=    0.0000000   0.0000000   0.0000000  31.3000000   0.0000000   2.0440000   0.0000000   2.0440000   0.0000000   0.0000000
 NMagM=    0.0000000   0.0000000   0.0000000   2.1063990   0.0000000   0.4037610   0.0000000   0.4037610   0.0000000   2.7928460
 AtZNuc=   6.0000000   6.0000000   6.0000000  35.0000000   6.0000000   7.0000000   6.0000000   7.0000000   6.0000000   1.0000000

  Atom        21          22          23          24          25          26          27          28
 IAtWgt=           1           1           1           1           1           1           1           1
 AtmWgt=   1.0078250   1.0078250   1.0078250   1.0078250   1.0078250   1.0078250   1.0078250   1.0078250
 NucSpn=           1           1           1           1           1           1           1           1
 AtZEff=  -0.0000000  -0.0000000  -0.0000000  -0.0000000  -0.0000000  -0.0000000  -0.0000000  -0.0000000
 NQMom=    0.0000000   0.0000000   0.0000000   0.0000000   0.0000000   0.0000000   0.0000000   0.0000000
 NMagM=    2.7928460   2.7928460   2.7928460   2.7928460   2.7928460   2.7928460   2.7928460   2.7928460
 AtZNuc=   1.0000000   1.0000000   1.0000000   1.0000000   1.0000000   1.0000000   1.0000000   1.0000000
 Leave Link  101 at Mon Jan 19 00:01:11 2026, MaxMem=  8053063680 cpu:              10.9 elap:               0.7
 (Enter /appl/Gaussian16/AVX_revB01/g16/l103.exe)

 GradGradGradGradGradGradGradGradGradGradGradGradGradGradGradGradGradGrad
 Berny optimization.
 Initialization pass.
                           ----------------------------
                           !    Initial Parameters    !
                           ! (Angstroms and Degrees)  !
 --------------------------                            --------------------------
 ! Name  Definition              Value          Derivative Info.                !
 --------------------------------------------------------------------------------
 ! R1    R(1,2)                  1.4366         estimate D2E/DX2                !
 ! R2    R(1,20)                 1.092          estimate D2E/DX2                !
 ! R3    R(1,21)                 1.092          estimate D2E/DX2                !
 ! R4    R(1,22)                 1.0883         estimate D2E/DX2                !
 ! R5    R(2,3)                  1.3834         estimate D2E/DX2                !
 ! R6    R(2,19)                 1.3532         estimate D2E/DX2                !
 ! R7    R(3,4)                  1.3847         estimate D2E/DX2                !
 ! R8    R(3,8)                  1.4156         estimate D2E/DX2                !
 ! R9    R(4,5)                  1.3849         estimate D2E/DX2                !
 ! R10   R(4,23)                 1.0788         estimate D2E/DX2                !
 ! R11   R(5,6)                  1.3922         estimate D2E/DX2                !
 ! R12   R(5,24)                 1.0798         estimate D2E/DX2                !
 ! R13   R(6,7)                  1.3821         estimate D2E/DX2                !
 ! R14   R(6,25)                 1.0792         estimate D2E/DX2                !
 ! R15   R(7,8)                  1.3878         estimate D2E/DX2                !
 ! R16   R(7,26)                 1.0783         estimate D2E/DX2                !
 ! R17   R(8,9)                  1.4347         estimate D2E/DX2                !
 ! R18   R(9,10)                 1.3051         estimate D2E/DX2                !
 ! R19   R(9,19)                 1.4493         estimate D2E/DX2                !
 ! R20   R(10,11)                1.3529         estimate D2E/DX2                !
 ! R21   R(11,12)                1.4068         estimate D2E/DX2                !
 ! R22   R(11,17)                1.4345         estimate D2E/DX2                !
 ! R23   R(12,13)                1.369          estimate D2E/DX2                !
 ! R24   R(12,27)                1.0793         estimate D2E/DX2                !
 ! R25   R(13,14)                1.9004         estimate D2E/DX2                !
 ! R26   R(13,15)                1.4073         estimate D2E/DX2                !
 ! R27   R(15,16)                1.2994         estimate D2E/DX2                !
 ! R28   R(15,28)                1.0821         estimate D2E/DX2                !
 ! R29   R(16,17)                1.3437         estimate D2E/DX2                !
 ! R30   R(17,18)                1.3475         estimate D2E/DX2                !
 ! R31   R(18,19)                1.309          estimate D2E/DX2                !
 ! A1    A(2,1,20)             110.5244         estimate D2E/DX2                !
 ! A2    A(2,1,21)             110.529          estimate D2E/DX2                !
 ! A3    A(2,1,22)             107.4867         estimate D2E/DX2                !
 ! A4    A(20,1,21)            109.11           estimate D2E/DX2                !
 ! A5    A(20,1,22)            109.5855         estimate D2E/DX2                !
 ! A6    A(21,1,22)            109.5836         estimate D2E/DX2                !
 ! A7    A(1,2,3)              126.4566         estimate D2E/DX2                !
 ! A8    A(1,2,19)             124.9676         estimate D2E/DX2                !
 ! A9    A(3,2,19)             108.5756         estimate D2E/DX2                !
 ! A10   A(2,3,4)              129.0097         estimate D2E/DX2                !
 ! A11   A(2,3,8)              110.0881         estimate D2E/DX2                !
 ! A12   A(4,3,8)              120.9023         estimate D2E/DX2                !
 ! A13   A(3,4,5)              117.6981         estimate D2E/DX2                !
 ! A14   A(3,4,23)             121.3262         estimate D2E/DX2                !
 ! A15   A(5,4,23)             120.9757         estimate D2E/DX2                !
 ! A16   A(4,5,6)              121.6852         estimate D2E/DX2                !
 ! A17   A(4,5,24)             119.0984         estimate D2E/DX2                !
 ! A18   A(6,5,24)             119.2164         estimate D2E/DX2                !
 ! A19   A(5,6,7)              120.9861         estimate D2E/DX2                !
 ! A20   A(5,6,25)             119.251          estimate D2E/DX2                !
 ! A21   A(7,6,25)             119.7629         estimate D2E/DX2                !
 ! A22   A(6,7,8)              118.2267         estimate D2E/DX2                !
 ! A23   A(6,7,26)             121.7431         estimate D2E/DX2                !
 ! A24   A(8,7,26)             120.0303         estimate D2E/DX2                !
 ! A25   A(3,8,7)              120.5017         estimate D2E/DX2                !
 ! A26   A(3,8,9)              106.035          estimate D2E/DX2                !
 ! A27   A(7,8,9)              133.4633         estimate D2E/DX2                !
 ! A28   A(8,9,10)             132.2284         estimate D2E/DX2                !
 ! A29   A(8,9,19)             105.8644         estimate D2E/DX2                !
 ! A30   A(10,9,19)            121.9072         estimate D2E/DX2                !
 ! A31   A(9,10,11)            115.0188         estimate D2E/DX2                !
 ! A32   A(10,11,12)           119.2415         estimate D2E/DX2                !
 ! A33   A(10,11,17)           122.7233         estimate D2E/DX2                !
 ! A34   A(12,11,17)           118.0351         estimate D2E/DX2                !
 ! A35   A(11,12,13)           118.0012         estimate D2E/DX2                !
 ! A36   A(11,12,27)           119.1121         estimate D2E/DX2                !
 ! A37   A(13,12,27)           122.8866         estimate D2E/DX2                !
 ! A38   A(12,13,14)           120.7605         estimate D2E/DX2                !
 ! A39   A(12,13,15)           120.0016         estimate D2E/DX2                !
 ! A40   A(14,13,15)           119.2379         estimate D2E/DX2                !
 ! A41   A(13,15,16)           123.0282         estimate D2E/DX2                !
 ! A42   A(13,15,28)           120.3813         estimate D2E/DX2                !
 ! A43   A(16,15,28)           116.5905         estimate D2E/DX2                !
 ! A44   A(15,16,17)           119.3173         estimate D2E/DX2                !
 ! A45   A(11,17,16)           121.6166         estimate D2E/DX2                !
 ! A46   A(11,17,18)           121.7543         estimate D2E/DX2                !
 ! A47   A(16,17,18)           116.6291         estimate D2E/DX2                !
 ! A48   A(17,18,19)           114.3983         estimate D2E/DX2                !
 ! A49   A(2,19,9)             109.4369         estimate D2E/DX2                !
 ! A50   A(2,19,18)            126.365          estimate D2E/DX2                !
 ! A51   A(9,19,18)            124.1981         estimate D2E/DX2                !
 ! D1    D(20,1,2,3)            60.2705         estimate D2E/DX2                !
 ! D2    D(20,1,2,19)         -119.5527         estimate D2E/DX2                !
 ! D3    D(21,1,2,3)           -60.6244         estimate D2E/DX2                !
 ! D4    D(21,1,2,19)          119.5524         estimate D2E/DX2                !
 ! D5    D(22,1,2,3)           179.8228         estimate D2E/DX2                !
 ! D6    D(22,1,2,19)           -0.0003         estimate D2E/DX2                !
 ! D7    D(1,2,3,4)              0.1578         estimate D2E/DX2                !
 ! D8    D(1,2,3,8)           -179.873          estimate D2E/DX2                !
 ! D9    D(19,2,3,4)          -179.9951         estimate D2E/DX2                !
 ! D10   D(19,2,3,8)            -0.0259         estimate D2E/DX2                !
 ! D11   D(1,2,19,9)           179.8779         estimate D2E/DX2                !
 ! D12   D(1,2,19,18)           -0.1421         estimate D2E/DX2                !
 ! D13   D(3,2,19,9)             0.028          estimate D2E/DX2                !
 ! D14   D(3,2,19,18)         -179.992          estimate D2E/DX2                !
 ! D15   D(2,3,4,5)            179.9746         estimate D2E/DX2                !
 ! D16   D(2,3,4,23)            -0.0305         estimate D2E/DX2                !
 ! D17   D(8,3,4,5)              0.0083         estimate D2E/DX2                !
 ! D18   D(8,3,4,23)          -179.9969         estimate D2E/DX2                !
 ! D19   D(2,3,8,7)           -179.9798         estimate D2E/DX2                !
 ! D20   D(2,3,8,9)              0.0131         estimate D2E/DX2                !
 ! D21   D(4,3,8,7)             -0.0077         estimate D2E/DX2                !
 ! D22   D(4,3,8,9)            179.9853         estimate D2E/DX2                !
 ! D23   D(3,4,5,6)             -0.0045         estimate D2E/DX2                !
 ! D24   D(3,4,5,24)           179.9999         estimate D2E/DX2                !
 ! D25   D(23,4,5,6)          -179.9993         estimate D2E/DX2                !
 ! D26   D(23,4,5,24)            0.0051         estimate D2E/DX2                !
 ! D27   D(4,5,6,7)             -0.0002         estimate D2E/DX2                !
 ! D28   D(4,5,6,25)          -179.9967         estimate D2E/DX2                !
 ! D29   D(24,5,6,7)           179.9954         estimate D2E/DX2                !
 ! D30   D(24,5,6,25)           -0.0011         estimate D2E/DX2                !
 ! D31   D(5,6,7,8)              0.001          estimate D2E/DX2                !
 ! D32   D(5,6,7,26)           179.9985         estimate D2E/DX2                !
 ! D33   D(25,6,7,8)           179.9975         estimate D2E/DX2                !
 ! D34   D(25,6,7,26)           -0.005          estimate D2E/DX2                !
 ! D35   D(6,7,8,3)              0.0028         estimate D2E/DX2                !
 ! D36   D(6,7,8,9)           -179.9878         estimate D2E/DX2                !
 ! D37   D(26,7,8,3)          -179.9947         estimate D2E/DX2                !
 ! D38   D(26,7,8,9)             0.0146         estimate D2E/DX2                !
 ! D39   D(3,8,9,10)          -179.9902         estimate D2E/DX2                !
 ! D40   D(3,8,9,19)             0.0037         estimate D2E/DX2                !
 ! D41   D(7,8,9,10)             0.0014         estimate D2E/DX2                !
 ! D42   D(7,8,9,19)           179.9953         estimate D2E/DX2                !
 ! D43   D(8,9,10,11)         -179.9991         estimate D2E/DX2                !
 ! D44   D(19,9,10,11)           0.0079         estimate D2E/DX2                !
 ! D45   D(8,9,19,2)            -0.0196         estimate D2E/DX2                !
 ! D46   D(8,9,19,18)          179.9999         estimate D2E/DX2                !
 ! D47   D(10,9,19,2)          179.9751         estimate D2E/DX2                !
 ! D48   D(10,9,19,18)          -0.0054         estimate D2E/DX2                !
 ! D49   D(9,10,11,12)         179.9974         estimate D2E/DX2                !
 ! D50   D(9,10,11,17)          -0.0027         estimate D2E/DX2                !
 ! D51   D(10,11,12,13)       -179.9995         estimate D2E/DX2                !
 ! D52   D(10,11,12,27)         -0.003          estimate D2E/DX2                !
 ! D53   D(17,11,12,13)          0.0006         estimate D2E/DX2                !
 ! D54   D(17,11,12,27)        179.9971         estimate D2E/DX2                !
 ! D55   D(10,11,17,16)        179.9962         estimate D2E/DX2                !
 ! D56   D(10,11,17,18)         -0.0059         estimate D2E/DX2                !
 ! D57   D(12,11,17,16)         -0.0039         estimate D2E/DX2                !
 ! D58   D(12,11,17,18)        179.9941         estimate D2E/DX2                !
 ! D59   D(11,12,13,14)        179.9999         estimate D2E/DX2                !
 ! D60   D(11,12,13,15)          0.002          estimate D2E/DX2                !
 ! D61   D(27,12,13,14)          0.0035         estimate D2E/DX2                !
 ! D62   D(27,12,13,15)       -179.9944         estimate D2E/DX2                !
 ! D63   D(12,13,15,16)         -0.0015         estimate D2E/DX2                !
 ! D64   D(12,13,15,28)        179.9971         estimate D2E/DX2                !
 ! D65   D(14,13,15,16)       -179.9995         estimate D2E/DX2                !
 ! D66   D(14,13,15,28)         -0.0008         estimate D2E/DX2                !
 ! D67   D(13,15,16,17)         -0.0017         estimate D2E/DX2                !
 ! D68   D(28,15,16,17)        179.9996         estimate D2E/DX2                !
 ! D69   D(15,16,17,11)          0.0044         estimate D2E/DX2                !
 ! D70   D(15,16,17,18)       -179.9936         estimate D2E/DX2                !
 ! D71   D(11,17,18,19)          0.0083         estimate D2E/DX2                !
 ! D72   D(16,17,18,19)       -179.9937         estimate D2E/DX2                !
 ! D73   D(17,18,19,2)        -179.9803         estimate D2E/DX2                !
 ! D74   D(17,18,19,9)          -0.0031         estimate D2E/DX2                !
 --------------------------------------------------------------------------------
 Trust Radius=3.00D-01 FncErr=1.00D-07 GrdErr=1.00D-06 EigMax=2.50D+02 EigMin=1.00D-04
 Number of steps in this run=    166 maximum allowed number of steps=    168.
 GradGradGradGradGradGradGradGradGradGradGradGradGradGradGradGradGradGrad

 Leave Link  103 at Mon Jan 19 00:01:11 2026, MaxMem=  8053063680 cpu:               0.2 elap:               0.0
 (Enter /appl/Gaussian16/AVX_revB01/g16/l202.exe)
                          Input orientation:                          
 ---------------------------------------------------------------------
 Center     Atomic      Atomic             Coordinates (Angstroms)
 Number     Number       Type             X           Y           Z
 ---------------------------------------------------------------------
      1          6           0       -1.744077    2.561407    0.474562
      2          7           0       -1.287065    1.207474    0.326695
      3          6           0       -2.080466    0.080911    0.202998
      4          6           0       -3.461718   -0.015068    0.188739
      5          6           0       -4.017995   -1.275806    0.050703
      6          6           0       -3.226818   -2.414894   -0.070483
      7          6           0       -1.847477   -2.327918   -0.057304
      8          6           0       -1.270170   -1.073350    0.080139
      9          6           0        0.087302   -0.612116    0.133567
     10          7           0        1.230028   -1.239286    0.068457
     11          6           0        2.323235   -0.447273    0.157100
     12          6           0        3.601664   -1.031307    0.097067
     13          6           0        4.690220   -0.206206    0.189296
     14         35           0        6.453424   -0.911618    0.117350
     15          6           0        4.510644    1.181554    0.339310
     16          7           0        3.339789    1.742020    0.397075
     17          6           0        2.238940    0.976407    0.311197
     18          7           0        1.053432    1.613629    0.377113
     19          6           0        0.010992    0.826793    0.289222
     20          1           0       -2.347180    2.665304    1.378964
     21          1           0       -2.340984    2.860624   -0.389520
     22          1           0       -0.864059    3.197420    0.547869
     23          1           0       -4.085762    0.860020    0.281806
     24          1           0       -5.092972   -1.376802    0.036760
     25          1           0       -3.701902   -3.378158   -0.176140
     26          1           0       -1.223033   -3.202035   -0.150229
     27          1           0        3.685325   -2.101097   -0.018625
     28          1           0        5.366681    1.839374    0.412857
 ---------------------------------------------------------------------
                    Distance matrix (angstroms):
                    1          2          3          4          5
     1  C    0.000000
     2  N    1.436613   0.000000
     3  C    2.517888   1.383449   0.000000
     4  C    3.109696   2.498551   1.384656   0.000000
     5  C    4.480464   3.701463   2.370210   1.384904   0.000000
     6  C    5.221031   4.128189   2.760065   2.425188   1.392182
     7  C    4.919254   3.600071   2.434029   2.831180   2.414488
     8  C    3.686681   2.294174   1.415625   2.436112   2.755431
     9  C    3.679873   2.288469   2.276911   3.599313   4.159425
    10  N    4.843086   3.519813   3.566566   4.850326   5.248181
    11  C    5.069118   3.975074   4.435501   5.801162   6.396014
    12  C    6.451902   5.381872   5.790929   7.136702   7.623722
    13  C    7.010081   6.143721   6.776785   8.154179   8.774752
    14  Br   8.910024   8.028048   8.591841   9.955850  10.477963
    15  C    6.406545   5.797780   6.683766   8.063072   8.880293
    16  N    5.150057   4.658162   5.672399   7.027891   7.960166
    17  C    4.289911   3.533602   4.412583   5.787532   6.655040
    18  N    2.955306   2.376011   3.492972   4.803615   5.845917
    19  C    2.474571   1.353246   2.222154   3.574708   4.550885
    20  H    1.092003   2.087195   2.851862   3.137391   4.481991
    21  H    1.092001   2.087250   2.854076   3.140069   4.485111
    22  H    1.088264   2.046396   3.363214   4.146913   5.495838
    23  H    2.900924   2.820540   2.152773   1.078829   2.149361
    24  H    5.188088   4.609498   3.350784   2.130353   1.079800
    25  H    6.287680   5.206948   3.839006   3.391342   2.138050
    26  H    5.820577   4.435688   3.411407   3.909395   3.400375
    27  H    7.173603   5.982521   6.168843   7.448137   7.747714
    28  H    7.147588   6.684240   7.654818   9.023847   9.894830
                    6          7          8          9         10
     6  C    0.000000
     7  C    1.382143   0.000000
     8  C    2.377162   1.387845   0.000000
     9  C    3.778232   2.593025   1.434685   0.000000
    10  N    4.611381   3.266799   2.505725   1.305146   0.000000
    11  C    5.892912   4.580135   3.648349   2.242125   1.352865
    12  C    6.969258   5.603407   4.872045   3.539463   2.380910
    13  C    8.223459   6.877788   6.024127   4.621117   3.613141
    14  Br   9.798072   8.422670   7.725377   6.373184   5.233892
    15  C    8.542288   7.273197   6.210440   4.777607   4.086106
    16  N    7.785812   6.608977   5.410959   4.023688   3.667051
    17  C    6.443688   5.268127   4.070472   2.680392   2.446655
    18  N    5.894903   4.913225   3.564712   2.438577   2.874992
    19  C    4.595796   3.677797   2.301225   1.449314   2.409040
    20  H    5.355658   5.219658   4.101760   4.268395   5.455242
    21  H    5.358879   5.222536   4.104068   4.269673   5.456293
    22  H    6.120707   5.644705   4.315458   3.948328   4.929442
    23  H    3.403962   3.909969   3.421426   4.427598   5.719286
    24  H    2.138146   3.383298   3.835073   5.237304   6.324575
    25  H    1.079234   2.134483   3.360230   4.701593   5.381314
    26  H    2.154323   1.078262   2.141633   2.916368   3.149240
    27  H    6.919457   5.537585   5.061912   3.896922   2.603610
    28  H    9.601075   8.344546   7.255512   5.827491   5.168042
                   11         12         13         14         15
    11  C    0.000000
    12  C    1.406798   0.000000
    13  C    2.379447   1.369033   0.000000
    14  Br   4.156400   2.854343   1.900440   0.000000
    15  C    2.733319   2.404512   1.407348   2.864443   0.000000
    16  N    2.425690   2.801772   2.379584   4.100581   1.299369
    17  C    1.434474   2.435936   2.724372   4.622131   2.281121
    18  N    2.430662   3.683422   4.071032   5.966931   3.484312
    19  C    2.643325   4.047517   4.792938   6.675070   4.513893
    20  H    5.744028   7.120179   7.693236   9.583146   7.093105
    21  H    5.744207   7.120320   7.692743   9.582711   7.091916
    22  H    4.857502   6.166688   6.524052   8.403280   5.744096
    23  H    6.542156   7.918824   8.840999  10.688321   8.602609
    24  H    7.475201   8.701707   9.854157  11.556044   9.943146
    25  H    6.708459   7.676225   8.979006  10.454693   9.407581
    26  H    4.501020   5.296311   6.637532   8.015335   7.233985
    27  H    2.149722   1.079275   2.154915   3.015911   3.403684
    28  H    3.815328   3.384644   2.166097   2.972590   1.082098
                   16         17         18         19         20
    16  N    0.000000
    17  C    1.343654   0.000000
    18  N    2.290046   1.347526   0.000000
    19  C    3.454007   2.233075   1.309013   0.000000
    20  H    5.844500   5.002499   3.697822   3.182551   0.000000
    21  H    5.843046   5.001698   3.696590   3.182601   1.779249
    22  H    4.451210   3.823286   2.492855   2.540174   1.781436
    23  H    7.478638   6.325841   5.195029   4.096895   2.735959
    24  H    8.998240   7.705183   6.843741   5.565071   5.067495
    25  H    8.725263   7.381961   6.916446   5.628833   6.385691
    26  H    6.750005   5.445874   5.352663   4.236436   6.166669
    27  H    3.880947   3.416408   4.569755   4.708295   7.814279
    28  H    2.029290   3.246199   4.319301   5.451974   7.817876
                   21         22         23         24         25
    21  H    0.000000
    22  H    1.781414   0.000000
    23  H    2.738128   3.989185   0.000000
    24  H    5.070595   6.250475   2.465338   0.000000
    25  H    6.389056   7.198317   4.280096   2.446595   0.000000
    26  H    6.169515   6.447420   4.988203   4.282858   2.485254
    27  H    7.814899   7.006575   8.321555   8.808302   7.498455
    28  H    7.816320   6.378452   9.503946  10.949410  10.478968
                   26         27         28
    26  H    0.000000
    27  H    5.032034   0.000000
    28  H    8.316081   4.305862   0.000000
 Stoichiometry    C14H9BrN4
 Framework group  C1[X(C14H9BrN4)]
 Deg. of freedom    78
 Full point group                 C1      NOp   1
 Largest Abelian subgroup         C1      NOp   1
 Largest concise Abelian subgroup C1      NOp   1
                         Standard orientation:                         
 ---------------------------------------------------------------------
 Center     Atomic      Atomic             Coordinates (Angstroms)
 Number     Number       Type             X           Y           Z
 ---------------------------------------------------------------------
      1          6           0       -3.354522    2.716324    0.001272
      2          7           0       -2.876168    1.361691   -0.000796
      3          6           0       -3.651663    0.216031   -0.000192
      4          6           0       -5.031226    0.097380   -0.000501
      5          6           0       -5.567507   -1.179476   -0.000277
      6          6           0       -4.758423   -2.312416    0.000149
      7          6           0       -3.380628   -2.202861    0.000360
      8          6           0       -2.823223   -0.931872    0.000158
      9          6           0       -1.473211   -0.446291    0.000056
     10          7           0       -0.320714   -1.058791    0.000098
     11          6           0        0.759838   -0.244757   -0.000018
     12          6           0        2.047340   -0.811697    0.000072
     13          6           0        3.122718    0.035542   -0.000037
     14         35           0        4.896853   -0.645721    0.000075
     15          6           0        2.921229    1.428392   -0.000190
     16          7           0        1.741661    1.973350   -0.000265
     17          6           0        0.653051    1.185737   -0.000230
     18          7           0       -0.542382    1.807642   -0.000446
     19          6           0       -1.572256    0.999634   -0.000271
     20          1           0       -3.958450    2.907738    0.890711
     21          1           0       -3.956827    2.911114   -0.888533
     22          1           0       -2.484665    3.370284    0.003285
     23          1           0       -5.669025    0.967486   -0.000820
     24          1           0       -6.640753   -1.298266   -0.000509
     25          1           0       -5.218222   -3.288803    0.000257
     26          1           0       -2.742444   -3.071981    0.000713
     27          1           0        2.147900   -1.886277    0.000279
     28          1           0        3.766762    2.103677   -0.000230
 ---------------------------------------------------------------------
 Rotational constants (GHZ):           0.9381159           0.1255753           0.1108278
 Leave Link  202 at Mon Jan 19 00:01:11 2026, MaxMem=  8053063680 cpu:               0.3 elap:               0.0
 (Enter /appl/Gaussian16/AVX_revB01/g16/l301.exe)
 Standard basis: 6-31G(d) (6D, 7F)
 Ernie: Thresh=  0.10000D-02 Tol=  0.10000D-05 Strict=F.
 There are   318 symmetry adapted cartesian basis functions of A   symmetry.
 There are   318 symmetry adapted basis functions of A   symmetry.
   318 basis functions,   623 primitive gaussians,   318 cartesian basis functions
    78 alpha electrons       78 beta electrons
       nuclear repulsion energy      1614.7480877995 Hartrees.
 IExCor=  402 DFT=T Ex+Corr=B3LYP ExCW=0 ScaHFX=  0.200000
 ScaDFX=  0.800000  0.720000  1.000000  0.810000 ScalE2=  1.000000  1.000000
 IRadAn=      5 IRanWt=     -1 IRanGd=            0 ICorTp=0 IEmpDi=  4
 NAtoms=   28 NActive=   28 NUniq=   28 SFac= 1.00D+00 NAtFMM=   60 NAOKFM=F Big=F
 Integral buffers will be    131072 words long.
 Raffenetti 2 integral format.
 Two-electron integral symmetry is turned on.
 Leave Link  301 at Mon Jan 19 00:01:12 2026, MaxMem=  8053063680 cpu:               0.6 elap:               0.1
 (Enter /appl/Gaussian16/AVX_revB01/g16/l302.exe)
 NPDir=0 NMtPBC=     1 NCelOv=     1 NCel=       1 NClECP=     1 NCelD=      1
         NCelK=      1 NCelE2=     1 NClLst=     1 CellRange=     0.0.
 One-electron integrals computed using PRISM.
 One-electron integral symmetry used in STVInt
 NBasis=   318 RedAO= T EigKep=  3.07D-04  NBF=   318
 NBsUse=   318 1.00D-06 EigRej= -1.00D+00 NBFU=   318
 Precomputing XC quadrature grid using
 IXCGrd= 4 IRadAn=           5 IRanWt=          -1 IRanGd=           0 AccXCQ= 0.00D+00.
 Generated NRdTot=       0 NPtTot=           0 NUsed=           0 NTot=          32
 NSgBfM=   312   312   312   312   312 MxSgAt=    28 MxSgA2=    28.
 Leave Link  302 at Mon Jan 19 00:01:12 2026, MaxMem=  8053063680 cpu:               3.6 elap:               0.2
 (Enter /appl/Gaussian16/AVX_revB01/g16/l303.exe)
 DipDrv:  MaxL=1.
 Leave Link  303 at Mon Jan 19 00:01:12 2026, MaxMem=  8053063680 cpu:               0.6 elap:               0.1
 (Enter /appl/Gaussian16/AVX_revB01/g16/l401.exe)
 ExpMin= 1.43D-01 ExpMax= 5.74D+05 ExpMxC= 5.74D+03 IAcc=3 IRadAn=         5 AccDes= 0.00D+00
 Harris functional with IExCor=  402 and IRadAn=       5 diagonalized for initial guess.
 HarFok:  IExCor=  402 AccDes= 0.00D+00 IRadAn=         5 IDoV= 1 UseB2=F ITyADJ=14
 ICtDFT=  3500011 ScaDFX=  1.000000  1.000000  1.000000  1.000000
 FoFCou: FMM=F IPFlag=           0 FMFlag=      100000 FMFlg1=           0
         NFxFlg=           0 DoJE=T BraDBF=F KetDBF=T FulRan=T
         wScrn=  0.000000 ICntrl=       500 IOpCl=  0 I1Cent=   200000004 NGrid=           0
         NMat0=    1 NMatS0=      1 NMatT0=    0 NMatD0=    1 NMtDS0=    0 NMtDT0=    0
 Petite list used in FoFCou.
 Harris En= -3329.67353008852    
 JPrj=0 DoOrth=F DoCkMO=F.
 Leave Link  401 at Mon Jan 19 00:01:13 2026, MaxMem=  8053063680 cpu:              13.9 elap:               0.9
 (Enter /appl/Gaussian16/AVX_revB01/g16/l502.exe)
 Integral symmetry usage will be decided dynamically.
 Closed shell SCF:
 Using DIIS extrapolation, IDIIS=  1040.
 NGot=  8053063680 LenX=  8052852982 LenY=  8052751417
 Requested convergence on RMS density matrix=1.00D-08 within  32 cycles.
 Requested convergence on MAX density matrix=1.00D-06.
 Requested convergence on             energy=1.00D-06.
 No special actions if energy rises.
 Fock matrices will be formed incrementally for  20 cycles.
 Integral accuracy reduced to 1.0D-05 until final iterations.

 Cycle   1  Pass 0  IDiag  1:
 FoFJK:  IHMeth= 1 ICntrl=       0 DoSepK=F KAlg= 0 I1Cent=           0 FoldK=F
 IRaf= 770000000 NMat=       1 IRICut=       1 DoRegI=T DoRafI=F ISym2E= 0 IDoP0=0 IntGTp=1.
 FoFCou: FMM=F IPFlag=           0 FMFlag=      100000 FMFlg1=           0
         NFxFlg=           0 DoJE=F BraDBF=F KetDBF=F FulRan=T
         wScrn=  0.000000 ICntrl=         0 IOpCl=  0 I1Cent=           0 NGrid=           0
         NMat0=    1 NMatS0=      1 NMatT0=    0 NMatD0=    1 NMtDS0=    0 NMtDT0=    0
 Symmetry not used in FoFCou.
 E= -3329.33649762110    
 DIIS: error= 1.96D-01 at cycle   1 NSaved=   1.
 NSaved= 1 IEnMin= 1 EnMin= -3329.33649762110     IErMin= 1 ErrMin= 1.96D-01
 ErrMax= 1.96D-01  0.00D+00 EMaxC= 1.00D-01 BMatC= 6.59D-01 BMatP= 6.59D-01
 IDIUse=3 WtCom= 0.00D+00 WtEn= 1.00D+00
 Coeff-Com:  0.100D+01
 Coeff-En:   0.100D+01
 Coeff:      0.100D+01
 Gap=     0.171 Goal=   None    Shift=    0.000
 GapD=    0.171 DampG=1.000 DampE=0.250 DampFc=0.2500 IDamp=-1.
 Damping current iteration by 2.50D-01
 RMSDP=4.89D-03 MaxDP=1.43D-01              OVMax= 2.20D-01

 Cycle   2  Pass 0  IDiag  1:
 RMSU=  1.18D-03    CP:  9.90D-01
 E= -3329.44469260487     Delta-E=       -0.108194983764 Rises=F Damp=T
 DIIS: error= 1.45D-01 at cycle   2 NSaved=   2.
 NSaved= 2 IEnMin= 2 EnMin= -3329.44469260487     IErMin= 2 ErrMin= 1.45D-01
 ErrMax= 1.45D-01  0.00D+00 EMaxC= 1.00D-01 BMatC= 2.79D-01 BMatP= 6.59D-01
 IDIUse=3 WtCom= 0.00D+00 WtEn= 1.00D+00
 Coeff-Com: -0.129D+01 0.229D+01
 Coeff-En:   0.000D+00 0.100D+01
 Coeff:      0.000D+00 0.100D+01
 Gap=     0.146 Goal=   None    Shift=    0.000
 RMSDP=2.66D-03 MaxDP=1.10D-01 DE=-1.08D-01 OVMax= 1.05D-01

 Cycle   3  Pass 0  IDiag  1:
 RMSU=  1.04D-03    CP:  9.60D-01  2.92D+00
 E= -3329.58933359470     Delta-E=       -0.144640989831 Rises=F Damp=F
 DIIS: error= 1.38D-02 at cycle   3 NSaved=   3.
 NSaved= 3 IEnMin= 3 EnMin= -3329.58933359470     IErMin= 3 ErrMin= 1.38D-02
 ErrMax= 1.38D-02  0.00D+00 EMaxC= 1.00D-01 BMatC= 5.77D-02 BMatP= 2.79D-01
 IDIUse=3 WtCom= 8.62D-01 WtEn= 1.38D-01
 Coeff-Com:  0.101D+01-0.120D+01 0.119D+01
 Coeff-En:   0.648D-01 0.000D+00 0.935D+00
 Coeff:      0.877D+00-0.103D+01 0.115D+01
 Gap=     0.146 Goal=   None    Shift=    0.000
 RMSDP=1.30D-03 MaxDP=3.72D-02 DE=-1.45D-01 OVMax= 6.77D-02

 Cycle   4  Pass 0  IDiag  1:
 RMSU=  9.03D-04    CP:  9.63D-01  2.13D+00  1.05D+00
 E= -3329.62908330914     Delta-E=       -0.039749714448 Rises=F Damp=F
 DIIS: error= 6.13D-03 at cycle   4 NSaved=   4.
 NSaved= 4 IEnMin= 4 EnMin= -3329.62908330914     IErMin= 4 ErrMin= 6.13D-03
 ErrMax= 6.13D-03  0.00D+00 EMaxC= 1.00D-01 BMatC= 1.55D-02 BMatP= 5.77D-02
 IDIUse=3 WtCom= 9.39D-01 WtEn= 6.13D-02
 Coeff-Com:  0.660D+00-0.854D+00 0.702D+00 0.492D+00
 Coeff-En:   0.000D+00 0.000D+00 0.136D+00 0.864D+00
 Coeff:      0.620D+00-0.802D+00 0.667D+00 0.515D+00
 Gap=     0.144 Goal=   None    Shift=    0.000
 RMSDP=6.37D-04 MaxDP=1.72D-02 DE=-3.97D-02 OVMax= 5.60D-02

 Cycle   5  Pass 0  IDiag  1:
 RMSU=  2.11D-04    CP:  9.63D-01  2.19D+00  1.21D+00  3.65D-01
 E= -3329.64533473741     Delta-E=       -0.016251428262 Rises=F Damp=F
 DIIS: error= 2.01D-03 at cycle   5 NSaved=   5.
 NSaved= 5 IEnMin= 5 EnMin= -3329.64533473741     IErMin= 5 ErrMin= 2.01D-03
 ErrMax= 2.01D-03  0.00D+00 EMaxC= 1.00D-01 BMatC= 1.52D-03 BMatP= 1.55D-02
 IDIUse=3 WtCom= 9.80D-01 WtEn= 2.01D-02
 Coeff-Com:  0.261D+00-0.341D+00 0.296D+00 0.309D+00 0.475D+00
 Coeff-En:   0.000D+00 0.000D+00 0.000D+00 0.430D-01 0.957D+00
 Coeff:      0.256D+00-0.334D+00 0.290D+00 0.303D+00 0.484D+00
 Gap=     0.137 Goal=   None    Shift=    0.000
 RMSDP=1.70D-04 MaxDP=6.40D-03 DE=-1.63D-02 OVMax= 1.58D-02

 Cycle   6  Pass 0  IDiag  1:
 RMSU=  7.08D-05    CP:  9.62D-01  2.21D+00  1.19D+00  4.52D-01  3.96D-01
 E= -3329.64691658131     Delta-E=       -0.001581843899 Rises=F Damp=F
 DIIS: error= 4.14D-04 at cycle   6 NSaved=   6.
 NSaved= 6 IEnMin= 6 EnMin= -3329.64691658131     IErMin= 6 ErrMin= 4.14D-04
 ErrMax= 4.14D-04  0.00D+00 EMaxC= 1.00D-01 BMatC= 8.09D-05 BMatP= 1.52D-03
 IDIUse=3 WtCom= 9.96D-01 WtEn= 4.14D-03
 Coeff-Com:  0.663D-01-0.868D-01 0.832D-01 0.117D+00 0.269D+00 0.551D+00
 Coeff-En:   0.000D+00 0.000D+00 0.000D+00 0.000D+00 0.000D+00 0.100D+01
 Coeff:      0.661D-01-0.864D-01 0.829D-01 0.117D+00 0.268D+00 0.553D+00
 Gap=     0.137 Goal=   None    Shift=    0.000
 RMSDP=4.77D-05 MaxDP=2.10D-03 DE=-1.58D-03 OVMax= 4.63D-03

 Cycle   7  Pass 0  IDiag  1:
 RMSU=  2.32D-05    CP:  9.62D-01  2.22D+00  1.19D+00  4.65D-01  4.84D-01
                    CP:  5.03D-01
 E= -3329.64699460542     Delta-E=       -0.000078024113 Rises=F Damp=F
 DIIS: error= 1.51D-04 at cycle   7 NSaved=   7.
 NSaved= 7 IEnMin= 7 EnMin= -3329.64699460542     IErMin= 7 ErrMin= 1.51D-04
 ErrMax= 1.51D-04  0.00D+00 EMaxC= 1.00D-01 BMatC= 1.20D-05 BMatP= 8.09D-05
 IDIUse=3 WtCom= 9.98D-01 WtEn= 1.51D-03
 Coeff-Com:  0.235D-01-0.308D-01 0.320D-01 0.536D-01 0.140D+00 0.358D+00
 Coeff-Com:  0.424D+00
 Coeff-En:   0.000D+00 0.000D+00 0.000D+00 0.000D+00 0.000D+00 0.635D-01
 Coeff-En:   0.937D+00
 Coeff:      0.235D-01-0.308D-01 0.319D-01 0.535D-01 0.139D+00 0.358D+00
 Coeff:      0.425D+00
 Gap=     0.137 Goal=   None    Shift=    0.000
 RMSDP=1.56D-05 MaxDP=7.52D-04 DE=-7.80D-05 OVMax= 1.46D-03

 Cycle   8  Pass 0  IDiag  1:
 RMSU=  7.82D-06    CP:  9.62D-01  2.22D+00  1.19D+00  4.67D-01  4.83D-01
                    CP:  5.71D-01  4.60D-01
 E= -3329.64700597953     Delta-E=       -0.000011374108 Rises=F Damp=F
 DIIS: error= 5.58D-05 at cycle   8 NSaved=   8.
 NSaved= 8 IEnMin= 8 EnMin= -3329.64700597953     IErMin= 8 ErrMin= 5.58D-05
 ErrMax= 5.58D-05  0.00D+00 EMaxC= 1.00D-01 BMatC= 9.30D-07 BMatP= 1.20D-05
 IDIUse=1 WtCom= 1.00D+00 WtEn= 0.00D+00
 Coeff-Com:  0.447D-02-0.594D-02 0.691D-02 0.147D-01 0.432D-01 0.134D+00
 Coeff-Com:  0.249D+00 0.554D+00
 Coeff:      0.447D-02-0.594D-02 0.691D-02 0.147D-01 0.432D-01 0.134D+00
 Coeff:      0.249D+00 0.554D+00
 Gap=     0.137 Goal=   None    Shift=    0.000
 RMSDP=4.62D-06 MaxDP=1.96D-04 DE=-1.14D-05 OVMax= 3.60D-04

 Initial convergence to 1.0D-05 achieved.  Increase integral accuracy.
 Cycle   9  Pass 1  IDiag  1:
 E= -3329.64702729040     Delta-E=       -0.000021310871 Rises=F Damp=F
 DIIS: error= 7.09D-05 at cycle   1 NSaved=   1.
 NSaved= 1 IEnMin= 1 EnMin= -3329.64702729040     IErMin= 1 ErrMin= 7.09D-05
 ErrMax= 7.09D-05  0.00D+00 EMaxC= 1.00D-01 BMatC= 1.13D-06 BMatP= 1.13D-06
 IDIUse=1 WtCom= 1.00D+00 WtEn= 0.00D+00
 Coeff-Com:  0.100D+01
 Coeff:      0.100D+01
 Gap=     0.137 Goal=   None    Shift=    0.000
 RMSDP=4.62D-06 MaxDP=1.96D-04 DE=-2.13D-05 OVMax= 3.37D-04

 Cycle  10  Pass 1  IDiag  1:
 RMSU=  6.38D-05    CP:  1.00D+00
 E= -3329.64702765764     Delta-E=       -0.000000367240 Rises=F Damp=F
 DIIS: error= 4.67D-05 at cycle   2 NSaved=   2.
 NSaved= 2 IEnMin= 2 EnMin= -3329.64702765764     IErMin= 2 ErrMin= 4.67D-05
 ErrMax= 4.67D-05  0.00D+00 EMaxC= 1.00D-01 BMatC= 5.18D-07 BMatP= 1.13D-06
 IDIUse=1 WtCom= 1.00D+00 WtEn= 0.00D+00
 Coeff-Com:  0.354D+00 0.646D+00
 Coeff:      0.354D+00 0.646D+00
 Gap=     0.137 Goal=   None    Shift=    0.000
 RMSDP=5.59D-06 MaxDP=2.37D-04 DE=-3.67D-07 OVMax= 4.90D-04

 Cycle  11  Pass 1  IDiag  1:
 RMSU=  5.59D-06    CP:  1.00D+00  1.00D+00
 E= -3329.64702753519     Delta-E=        0.000000122443 Rises=F Damp=F
 DIIS: error= 5.44D-05 at cycle   3 NSaved=   3.
 NSaved= 3 IEnMin= 2 EnMin= -3329.64702765764     IErMin= 2 ErrMin= 4.67D-05
 ErrMax= 5.44D-05  0.00D+00 EMaxC= 1.00D-01 BMatC= 6.34D-07 BMatP= 5.18D-07
 IDIUse=1 WtCom= 1.00D+00 WtEn= 0.00D+00
 Coeff-Com:  0.601D-02 0.524D+00 0.470D+00
 Coeff:      0.601D-02 0.524D+00 0.470D+00
 Gap=     0.137 Goal=   None    Shift=    0.000
 RMSDP=3.14D-06 MaxDP=1.47D-04 DE= 1.22D-07 OVMax= 2.51D-04

 Cycle  12  Pass 1  IDiag  1:
 RMSU=  7.13D-07    CP:  1.00D+00  1.01D+00  4.61D-01
 E= -3329.64702819169     Delta-E=       -0.000000656491 Rises=F Damp=F
 DIIS: error= 5.11D-06 at cycle   4 NSaved=   4.
 NSaved= 4 IEnMin= 4 EnMin= -3329.64702819169     IErMin= 4 ErrMin= 5.11D-06
 ErrMax= 5.11D-06  0.00D+00 EMaxC= 1.00D-01 BMatC= 1.49D-08 BMatP= 5.18D-07
 IDIUse=1 WtCom= 1.00D+00 WtEn= 0.00D+00
 Coeff-Com: -0.295D-02 0.328D+00 0.306D+00 0.369D+00
 Coeff:     -0.295D-02 0.328D+00 0.306D+00 0.369D+00
 Gap=     0.137 Goal=   None    Shift=    0.000
 RMSDP=4.60D-07 MaxDP=2.39D-05 DE=-6.56D-07 OVMax= 4.54D-05

 Cycle  13  Pass 1  IDiag  1:
 RMSU=  1.66D-07    CP:  1.00D+00  1.01D+00  4.77D-01  4.14D-01
 E= -3329.64702820597     Delta-E=       -0.000000014282 Rises=F Damp=F
 DIIS: error= 6.65D-07 at cycle   5 NSaved=   5.
 NSaved= 5 IEnMin= 5 EnMin= -3329.64702820597     IErMin= 5 ErrMin= 6.65D-07
 ErrMax= 6.65D-07  0.00D+00 EMaxC= 1.00D-01 BMatC= 2.25D-10 BMatP= 1.49D-08
 IDIUse=1 WtCom= 1.00D+00 WtEn= 0.00D+00
 Coeff-Com: -0.185D-02 0.167D+00 0.156D+00 0.209D+00 0.470D+00
 Coeff:     -0.185D-02 0.167D+00 0.156D+00 0.209D+00 0.470D+00
 Gap=     0.137 Goal=   None    Shift=    0.000
 RMSDP=6.41D-08 MaxDP=3.18D-06 DE=-1.43D-08 OVMax= 5.63D-06

 Cycle  14  Pass 1  IDiag  1:
 RMSU=  4.70D-08    CP:  1.00D+00  1.01D+00  4.77D-01  4.51D-01  7.93D-01
 E= -3329.64702820619     Delta-E=       -0.000000000218 Rises=F Damp=F
 DIIS: error= 2.03D-07 at cycle   6 NSaved=   6.
 NSaved= 6 IEnMin= 6 EnMin= -3329.64702820619     IErMin= 6 ErrMin= 2.03D-07
 ErrMax= 2.03D-07  0.00D+00 EMaxC= 1.00D-01 BMatC= 1.38D-11 BMatP= 2.25D-10
 IDIUse=1 WtCom= 1.00D+00 WtEn= 0.00D+00
 Coeff-Com: -0.730D-03 0.612D-01 0.577D-01 0.824D-01 0.250D+00 0.549D+00
 Coeff:     -0.730D-03 0.612D-01 0.577D-01 0.824D-01 0.250D+00 0.549D+00
 Gap=     0.137 Goal=   None    Shift=    0.000
 RMSDP=1.74D-08 MaxDP=6.05D-07 DE=-2.18D-10 OVMax= 1.89D-06

 Cycle  15  Pass 1  IDiag  1:
 RMSU=  1.53D-08    CP:  1.00D+00  1.01D+00  4.77D-01  4.48D-01  8.07D-01
                    CP:  8.41D-01
 E= -3329.64702820619     Delta-E=       -0.000000000008 Rises=F Damp=F
 DIIS: error= 8.02D-08 at cycle   7 NSaved=   7.
 NSaved= 7 IEnMin= 7 EnMin= -3329.64702820619     IErMin= 7 ErrMin= 8.02D-08
 ErrMax= 8.02D-08  0.00D+00 EMaxC= 1.00D-01 BMatC= 2.12D-12 BMatP= 1.38D-11
 IDIUse=1 WtCom= 1.00D+00 WtEn= 0.00D+00
 Coeff-Com: -0.171D-03 0.126D-01 0.121D-01 0.201D-01 0.759D-01 0.316D+00
 Coeff-Com:  0.563D+00
 Coeff:     -0.171D-03 0.126D-01 0.121D-01 0.201D-01 0.759D-01 0.316D+00
 Coeff:      0.563D+00
 Gap=     0.137 Goal=   None    Shift=    0.000
 RMSDP=7.48D-09 MaxDP=2.44D-07 DE=-8.19D-12 OVMax= 6.62D-07

 SCF Done:  E(RB3LYP) =  -3329.64702821     A.U. after   15 cycles
            NFock= 15  Conv=0.75D-08     -V/T= 2.0067
 KE= 3.307495847014D+03 PE=-1.112161266927D+04 EE= 2.869721706254D+03
 Leave Link  502 at Mon Jan 19 00:01:31 2026, MaxMem=  8053063680 cpu:             276.2 elap:              17.4
 (Enter /appl/Gaussian16/AVX_revB01/g16/l508.exe)
 QCSCF skips out because SCF is already converged.
 Leave Link  508 at Mon Jan 19 00:01:31 2026, MaxMem=  8053063680 cpu:               0.0 elap:               0.0
 (Enter /appl/Gaussian16/AVX_revB01/g16/l601.exe)
 Copying SCF densities to generalized density rwf, IOpCl= 0 IROHF=0.

 **********************************************************************

            Population analysis using the SCF Density.

 **********************************************************************

 Orbital symmetries:
       Occupied  (A) (A) (A) (A) (A) (A) (A) (A) (A) (A) (A) (A)
                 (A) (A) (A) (A) (A) (A) (A) (A) (A) (A) (A) (A)
                 (A) (A) (A) (A) (A) (A) (A) (A) (A) (A) (A) (A)
                 (A) (A) (A) (A) (A) (A) (A) (A) (A) (A) (A) (A)
                 (A) (A) (A) (A) (A) (A) (A) (A) (A) (A) (A) (A)
                 (A) (A) (A) (A) (A) (A) (A) (A) (A) (A) (A) (A)
                 (A) (A) (A) (A) (A) (A)
       Virtual   (A) (A) (A) (A) (A) (A) (A) (A) (A) (A) (A) (A)
                 (A) (A) (A) (A) (A) (A) (A) (A) (A) (A) (A) (A)
                 (A) (A) (A) (A) (A) (A) (A) (A) (A) (A) (A) (A)
                 (A) (A) (A) (A) (A) (A) (A) (A) (A) (A) (A) (A)
                 (A) (A) (A) (A) (A) (A) (A) (A) (A) (A) (A) (A)
                 (A) (A) (A) (A) (A) (A) (A) (A) (A) (A) (A) (A)
                 (A) (A) (A) (A) (A) (A) (A) (A) (A) (A) (A) (A)
                 (A) (A) (A) (A) (A) (A) (A) (A) (A) (A) (A) (A)
                 (A) (A) (A) (A) (A) (A) (A) (A) (A) (A) (A) (A)
                 (A) (A) (A) (A) (A) (A) (A) (A) (A) (A) (A) (A)
                 (A) (A) (A) (A) (A) (A) (A) (A) (A) (A) (A) (A)
                 (A) (A) (A) (A) (A) (A) (A) (A) (A) (A) (A) (A)
                 (A) (A) (A) (A) (A) (A) (A) (A) (A) (A) (A) (A)
                 (A) (A) (A) (A) (A) (A) (A) (A) (A) (A) (A) (A)
                 (A) (A) (A) (A) (A) (A) (A) (A) (A) (A) (A) (A)
                 (A) (A) (A) (A) (A) (A) (A) (A) (A) (A) (A) (A)
                 (A) (A) (A) (A) (A) (A) (A) (A) (A) (A) (A) (A)
                 (A) (A) (A) (A) (A) (A) (A) (A) (A) (A) (A) (A)
                 (A) (A) (A) (A) (A) (A) (A) (A) (A) (A) (A) (A)
                 (A) (A) (A) (A) (A) (A) (A) (A) (A) (A) (A) (A)
 The electronic state is 1-A.
 Alpha  occ. eigenvalues -- -482.91557 -61.87729 -56.39869 -56.39450 -56.39442
 Alpha  occ. eigenvalues --  -14.39771 -14.35128 -14.34246 -14.33435 -10.27054
 Alpha  occ. eigenvalues --  -10.26007 -10.25152 -10.24338 -10.24110 -10.23789
 Alpha  occ. eigenvalues --  -10.23682 -10.23579 -10.21577 -10.20538 -10.20440
 Alpha  occ. eigenvalues --  -10.20411 -10.20287 -10.19521  -8.58874  -6.54278
 Alpha  occ. eigenvalues --   -6.52993  -6.52963  -2.65850  -2.65483  -2.65460
 Alpha  occ. eigenvalues --   -2.64435  -2.64435  -1.03385  -0.98855  -0.94870
 Alpha  occ. eigenvalues --   -0.91988  -0.86771  -0.83772  -0.81556  -0.77710
 Alpha  occ. eigenvalues --   -0.76672  -0.74668  -0.71999  -0.68487  -0.65346
 Alpha  occ. eigenvalues --   -0.63677  -0.61507  -0.60024  -0.57201  -0.55461
 Alpha  occ. eigenvalues --   -0.52598  -0.51902  -0.49490  -0.48998  -0.48512
 Alpha  occ. eigenvalues --   -0.46934  -0.45589  -0.45018  -0.44883  -0.43534
 Alpha  occ. eigenvalues --   -0.42214  -0.41537  -0.41363  -0.38936  -0.37815
 Alpha  occ. eigenvalues --   -0.37687  -0.36778  -0.35959  -0.33953  -0.32017
 Alpha  occ. eigenvalues --   -0.30266  -0.29668  -0.29391  -0.27890  -0.26065
 Alpha  occ. eigenvalues --   -0.24474  -0.23817  -0.22114
 Alpha virt. eigenvalues --   -0.08435  -0.03069  -0.00869   0.00318   0.00713
 Alpha virt. eigenvalues --    0.01734   0.08529   0.09301   0.10184   0.13734
 Alpha virt. eigenvalues --    0.13982   0.14719   0.14876   0.15264   0.16051
 Alpha virt. eigenvalues --    0.17313   0.17320   0.18195   0.19417   0.20753
 Alpha virt. eigenvalues --    0.21911   0.22764   0.24313   0.25660   0.26986
 Alpha virt. eigenvalues --    0.28221   0.28643   0.31267   0.31959   0.33648
 Alpha virt. eigenvalues --    0.35295   0.36199   0.37475   0.38467   0.40756
 Alpha virt. eigenvalues --    0.41399   0.42500   0.45953   0.45993   0.46458
 Alpha virt. eigenvalues --    0.47172   0.47597   0.47978   0.48402   0.48520
 Alpha virt. eigenvalues --    0.49137   0.49786   0.51563   0.52526   0.52661
 Alpha virt. eigenvalues --    0.54634   0.55089   0.55693   0.55958   0.56687
 Alpha virt. eigenvalues --    0.58260   0.58739   0.59268   0.59600   0.60086
 Alpha virt. eigenvalues --    0.60511   0.60577   0.62586   0.63352   0.64340
 Alpha virt. eigenvalues --    0.64747   0.65430   0.66441   0.68456   0.69431
 Alpha virt. eigenvalues --    0.70071   0.72001   0.73284   0.73428   0.74162
 Alpha virt. eigenvalues --    0.74668   0.78584   0.78996   0.79399   0.80476
 Alpha virt. eigenvalues --    0.81136   0.81784   0.83117   0.83344   0.83615
 Alpha virt. eigenvalues --    0.83856   0.85423   0.86347   0.86591   0.88555
 Alpha virt. eigenvalues --    0.88568   0.90449   0.91404   0.92569   0.92878
 Alpha virt. eigenvalues --    0.94530   0.94622   0.95937   0.96708   0.97286
 Alpha virt. eigenvalues --    0.98867   1.01781   1.03127   1.06574   1.08381
 Alpha virt. eigenvalues --    1.10402   1.12753   1.15198   1.17313   1.17987
 Alpha virt. eigenvalues --    1.19513   1.19918   1.21746   1.23720   1.25311
 Alpha virt. eigenvalues --    1.25481   1.27119   1.30119   1.30989   1.31985
 Alpha virt. eigenvalues --    1.33065   1.33525   1.37189   1.38718   1.39747
 Alpha virt. eigenvalues --    1.41978   1.43638   1.44078   1.45672   1.46590
 Alpha virt. eigenvalues --    1.47961   1.48471   1.49230   1.50291   1.52241
 Alpha virt. eigenvalues --    1.54141   1.57425   1.59290   1.64019   1.65649
 Alpha virt. eigenvalues --    1.68265   1.70954   1.72942   1.75149   1.76696
 Alpha virt. eigenvalues --    1.78198   1.79684   1.80359   1.81120   1.83512
 Alpha virt. eigenvalues --    1.85853   1.86020   1.87300   1.88873   1.89677
 Alpha virt. eigenvalues --    1.92238   1.92640   1.95870   1.96764   1.97908
 Alpha virt. eigenvalues --    2.00787   2.02332   2.03131   2.04570   2.05923
 Alpha virt. eigenvalues --    2.10408   2.11358   2.13047   2.13628   2.14937
 Alpha virt. eigenvalues --    2.17191   2.19281   2.19436   2.21572   2.22186
 Alpha virt. eigenvalues --    2.22688   2.25120   2.26910   2.27278   2.28288
 Alpha virt. eigenvalues --    2.32470   2.34243   2.34460   2.36572   2.38073
 Alpha virt. eigenvalues --    2.38488   2.41426   2.43875   2.45418   2.49259
 Alpha virt. eigenvalues --    2.53022   2.53367   2.53778   2.59617   2.61036
 Alpha virt. eigenvalues --    2.61905   2.64054   2.65708   2.66568   2.66833
 Alpha virt. eigenvalues --    2.68945   2.69431   2.71242   2.75258   2.78070
 Alpha virt. eigenvalues --    2.78718   2.81321   2.82807   2.84636   2.87687
 Alpha virt. eigenvalues --    2.90234   2.98107   3.01232   3.05669   3.09151
 Alpha virt. eigenvalues --    3.25766   3.29005   3.40990   3.47751   3.57072
 Alpha virt. eigenvalues --    4.04028   4.05393   4.07513   4.08861   4.12122
 Alpha virt. eigenvalues --    4.15546   4.18561   4.20342   4.27291   4.31264
 Alpha virt. eigenvalues --    4.38070   4.42321   4.43900   4.54055   4.65564
 Alpha virt. eigenvalues --    4.69499   4.79276   4.88147   8.60164  72.79413
          Condensed to atoms (all electrons):
               1          2          3          4          5          6
     1  C    5.004751   0.292099  -0.045349  -0.003374  -0.000152   0.000011
     2  N    0.292099   7.145458   0.277790  -0.099040   0.006055  -0.000316
     3  C   -0.045349   0.277790   4.708173   0.484307   0.004563  -0.044138
     4  C   -0.003374  -0.099040   0.484307   5.088412   0.514546  -0.024871
     5  C   -0.000152   0.006055   0.004563   0.514546   4.853710   0.531514
     6  C    0.000011  -0.000316  -0.044138  -0.024871   0.531514   4.908044
     7  C   -0.000069   0.010269  -0.071315  -0.058150  -0.023311   0.484530
     8  C    0.004974  -0.031408   0.451597  -0.055976  -0.041028   0.005548
     9  C    0.007119  -0.085552   0.028328   0.016884  -0.000073   0.010225
    10  N   -0.000109   0.006781   0.008915  -0.000134   0.000005   0.000191
    11  C   -0.000024   0.001228   0.000117   0.000008   0.000000   0.000005
    12  C    0.000000   0.000013   0.000007  -0.000000  -0.000000  -0.000000
    13  C   -0.000000   0.000000  -0.000000   0.000000  -0.000000   0.000000
    14  Br  -0.000000  -0.000000   0.000000  -0.000000  -0.000000  -0.000000
    15  C    0.000000   0.000000  -0.000000   0.000000   0.000000  -0.000000
    16  N    0.000006  -0.000045  -0.000002  -0.000000   0.000000  -0.000000
    17  C    0.000103   0.002086  -0.000281  -0.000003   0.000000  -0.000000
    18  N   -0.007882  -0.082504  -0.000394  -0.000217   0.000002   0.000000
    19  C   -0.038798   0.286608  -0.100048   0.002272  -0.000117  -0.000456
    20  H    0.375633  -0.041811  -0.000642   0.002746   0.000000  -0.000002
    21  H    0.375688  -0.041799  -0.000648   0.002728   0.000001  -0.000002
    22  H    0.375547  -0.033828   0.002016   0.000076   0.000001  -0.000000
    23  H    0.004822  -0.008755  -0.036257   0.351081  -0.041982   0.004397
    24  H   -0.000001  -0.000116   0.002841  -0.039950   0.360465  -0.040056
    25  H   -0.000000   0.000005   0.001167   0.004697  -0.040553   0.360311
    26  H    0.000003  -0.000101   0.005018   0.000382   0.004559  -0.046812
    27  H    0.000000  -0.000000  -0.000000  -0.000000   0.000000   0.000000
    28  H    0.000000  -0.000000  -0.000000  -0.000000   0.000000  -0.000000
               7          8          9         10         11         12
     1  C   -0.000069   0.004974   0.007119  -0.000109  -0.000024   0.000000
     2  N    0.010269  -0.031408  -0.085552   0.006781   0.001228   0.000013
     3  C   -0.071315   0.451597   0.028328   0.008915   0.000117   0.000007
     4  C   -0.058150  -0.055976   0.016884  -0.000134   0.000008  -0.000000
     5  C   -0.023311  -0.041028  -0.000073   0.000005   0.000000  -0.000000
     6  C    0.484530   0.005548   0.010225   0.000191   0.000005  -0.000000
     7  C    5.110336   0.496522  -0.114028  -0.005736  -0.000057  -0.000002
     8  C    0.496522   4.970885   0.217907  -0.092801   0.000280  -0.000681
     9  C   -0.114028   0.217907   5.108286   0.469933  -0.046953  -0.001096
    10  N   -0.005736  -0.092801   0.469933   7.050125   0.375452  -0.065937
    11  C   -0.000057   0.000280  -0.046953   0.375452   4.794428   0.443188
    12  C   -0.000002  -0.000681  -0.001096  -0.065937   0.443188   5.138462
    13  C   -0.000000   0.000004  -0.000156   0.005622  -0.003794   0.506065
    14  Br  -0.000000  -0.000000   0.000000  -0.000091   0.005407  -0.059526
    15  C    0.000000   0.000000   0.000117   0.000066  -0.027213  -0.045766
    16  N   -0.000000   0.000029   0.000510   0.006065  -0.068237  -0.046282
    17  C    0.000008   0.004762  -0.026737  -0.061956   0.381084  -0.073855
    18  N   -0.000087   0.009030  -0.058741  -0.018967  -0.103167   0.003933
    19  C    0.018484  -0.015682   0.266284  -0.100882  -0.008971   0.002973
    20  H   -0.000009  -0.000148  -0.000027   0.000002   0.000001  -0.000000
    21  H   -0.000009  -0.000150  -0.000030   0.000002   0.000001  -0.000000
    22  H    0.000009  -0.000037   0.000425  -0.000015   0.000048  -0.000000
    23  H    0.000566   0.004745  -0.000282   0.000001  -0.000000   0.000000
    24  H    0.004475   0.001084   0.000011  -0.000000   0.000000  -0.000000
    25  H   -0.037705   0.001671  -0.000244  -0.000001  -0.000000  -0.000000
    26  H    0.360273  -0.036377  -0.008958   0.003950  -0.000011  -0.000003
    27  H    0.000005  -0.000011   0.000659  -0.000148  -0.032732   0.350289
    28  H   -0.000000   0.000000   0.000002   0.000011   0.000363   0.003605
              13         14         15         16         17         18
     1  C   -0.000000  -0.000000   0.000000   0.000006   0.000103  -0.007882
     2  N    0.000000  -0.000000   0.000000  -0.000045   0.002086  -0.082504
     3  C   -0.000000   0.000000  -0.000000  -0.000002  -0.000281  -0.000394
     4  C    0.000000  -0.000000   0.000000  -0.000000  -0.000003  -0.000217
     5  C   -0.000000  -0.000000   0.000000   0.000000   0.000000   0.000002
     6  C    0.000000  -0.000000  -0.000000  -0.000000  -0.000000   0.000000
     7  C   -0.000000  -0.000000   0.000000  -0.000000   0.000008  -0.000087
     8  C    0.000004  -0.000000   0.000000   0.000029   0.004762   0.009030
     9  C   -0.000156   0.000000   0.000117   0.000510  -0.026737  -0.058741
    10  N    0.005622  -0.000091   0.000066   0.006065  -0.061956  -0.018967
    11  C   -0.003794   0.005407  -0.027213  -0.068237   0.381084  -0.103167
    12  C    0.506065  -0.059526  -0.045766  -0.046282  -0.073855   0.003933
    13  C    4.939295   0.242951   0.419677  -0.013091  -0.033463   0.000348
    14  Br   0.242951  34.973010  -0.046665   0.004601   0.000487   0.000009
    15  C    0.419677  -0.046665   4.862360   0.473673  -0.056583   0.002699
    16  N   -0.013091   0.004601   0.473673   6.865818   0.384369  -0.090245
    17  C   -0.033463   0.000487  -0.056583   0.384369   4.700121   0.406209
    18  N    0.000348   0.000009   0.002699  -0.090245   0.406209   7.041596
    19  C   -0.000017  -0.000001   0.000047  -0.001300  -0.050986   0.422701
    20  H    0.000000  -0.000000  -0.000000  -0.000000  -0.000002   0.000402
    21  H    0.000000  -0.000000  -0.000000  -0.000000  -0.000001   0.000402
    22  H   -0.000000  -0.000000   0.000001  -0.000047   0.000105   0.017678
    23  H   -0.000000   0.000000  -0.000000  -0.000000  -0.000000   0.000002
    24  H    0.000000  -0.000000  -0.000000  -0.000000   0.000000  -0.000000
    25  H    0.000000   0.000000   0.000000  -0.000000  -0.000000  -0.000000
    26  H   -0.000000  -0.000000   0.000000  -0.000000   0.000002   0.000000
    27  H   -0.047510  -0.003721   0.005320  -0.000717   0.005793  -0.000141
    28  H   -0.068580   0.003029   0.381180  -0.053017   0.004280  -0.000077
              19         20         21         22         23         24
     1  C   -0.038798   0.375633   0.375688   0.375547   0.004822  -0.000001
     2  N    0.286608  -0.041811  -0.041799  -0.033828  -0.008755  -0.000116
     3  C   -0.100048  -0.000642  -0.000648   0.002016  -0.036257   0.002841
     4  C    0.002272   0.002746   0.002728   0.000076   0.351081  -0.039950
     5  C   -0.000117   0.000000   0.000001   0.000001  -0.041982   0.360465
     6  C   -0.000456  -0.000002  -0.000002  -0.000000   0.004397  -0.040056
     7  C    0.018484  -0.000009  -0.000009   0.000009   0.000566   0.004475
     8  C   -0.015682  -0.000148  -0.000150  -0.000037   0.004745   0.001084
     9  C    0.266284  -0.000027  -0.000030   0.000425  -0.000282   0.000011
    10  N   -0.100882   0.000002   0.000002  -0.000015   0.000001  -0.000000
    11  C   -0.008971   0.000001   0.000001   0.000048  -0.000000   0.000000
    12  C    0.002973  -0.000000  -0.000000  -0.000000   0.000000  -0.000000
    13  C   -0.000017   0.000000   0.000000  -0.000000  -0.000000   0.000000
    14  Br  -0.000001  -0.000000  -0.000000  -0.000000   0.000000  -0.000000
    15  C    0.000047  -0.000000  -0.000000   0.000001  -0.000000  -0.000000
    16  N   -0.001300  -0.000000  -0.000000  -0.000047  -0.000000  -0.000000
    17  C   -0.050986  -0.000002  -0.000001   0.000105  -0.000000   0.000000
    18  N    0.422701   0.000402   0.000402   0.017678   0.000002  -0.000000
    19  C    4.766728   0.001010   0.001016  -0.002477  -0.000008   0.000001
    20  H    0.001010   0.554517  -0.041758  -0.022886   0.000670  -0.000000
    21  H    0.001016  -0.041758   0.554502  -0.022938   0.000660  -0.000000
    22  H   -0.002477  -0.022886  -0.022938   0.471129  -0.000049  -0.000000
    23  H   -0.000008   0.000670   0.000660  -0.000049   0.588301  -0.005448
    24  H    0.000001  -0.000000  -0.000000  -0.000000  -0.005448   0.585537
    25  H    0.000006   0.000000   0.000000  -0.000000  -0.000175  -0.005760
    26  H    0.000131  -0.000000  -0.000000  -0.000000   0.000018  -0.000177
    27  H    0.000045  -0.000000  -0.000000   0.000000   0.000000  -0.000000
    28  H   -0.000008  -0.000000  -0.000000  -0.000000  -0.000000  -0.000000
              25         26         27         28
     1  C   -0.000000   0.000003   0.000000   0.000000
     2  N    0.000005  -0.000101  -0.000000  -0.000000
     3  C    0.001167   0.005018  -0.000000  -0.000000
     4  C    0.004697   0.000382  -0.000000  -0.000000
     5  C   -0.040553   0.004559   0.000000   0.000000
     6  C    0.360311  -0.046812   0.000000  -0.000000
     7  C   -0.037705   0.360273   0.000005  -0.000000
     8  C    0.001671  -0.036377  -0.000011   0.000000
     9  C   -0.000244  -0.008958   0.000659   0.000002
    10  N   -0.000001   0.003950  -0.000148   0.000011
    11  C   -0.000000  -0.000011  -0.032732   0.000363
    12  C   -0.000000  -0.000003   0.350289   0.003605
    13  C    0.000000  -0.000000  -0.047510  -0.068580
    14  Br   0.000000  -0.000000  -0.003721   0.003029
    15  C    0.000000   0.000000   0.005320   0.381180
    16  N   -0.000000  -0.000000  -0.000717  -0.053017
    17  C   -0.000000   0.000002   0.005793   0.004280
    18  N   -0.000000   0.000000  -0.000141  -0.000077
    19  C    0.000006   0.000131   0.000045  -0.000008
    20  H    0.000000  -0.000000  -0.000000  -0.000000
    21  H    0.000000  -0.000000  -0.000000  -0.000000
    22  H   -0.000000  -0.000000   0.000000  -0.000000
    23  H   -0.000175   0.000018   0.000000  -0.000000
    24  H   -0.005760  -0.000177  -0.000000  -0.000000
    25  H    0.587267  -0.004583   0.000000   0.000000
    26  H   -0.004583   0.567953   0.000006  -0.000000
    27  H    0.000000   0.000006   0.549518  -0.000146
    28  H    0.000000  -0.000000  -0.000146   0.565259
 Mulliken charges:
               1
     1  C   -0.344999
     2  N   -0.603116
     3  C    0.324236
     4  C   -0.186423
     5  C   -0.128208
     6  C   -0.148121
     7  C   -0.174999
     8  C    0.105263
     9  C    0.216189
    10  N   -0.580346
    11  C    0.289553
    12  C   -0.155387
    13  C    0.052650
    14  Br  -0.119491
    15  C    0.031086
    16  N   -0.462085
    17  C    0.414457
    18  N   -0.542590
    19  C    0.551447
    20  H    0.172304
    21  H    0.172334
    22  H    0.215244
    23  H    0.137692
    24  H    0.137095
    25  H    0.133898
    26  H    0.154729
    27  H    0.173491
    28  H    0.164098
 Sum of Mulliken charges =  -0.00000
 Mulliken charges with hydrogens summed into heavy atoms:
               1
     1  C    0.214883
     2  N   -0.603116
     3  C    0.324236
     4  C   -0.048731
     5  C    0.008888
     6  C   -0.014223
     7  C   -0.020270
     8  C    0.105263
     9  C    0.216189
    10  N   -0.580346
    11  C    0.289553
    12  C    0.018104
    13  C    0.052650
    14  Br  -0.119491
    15  C    0.195184
    16  N   -0.462085
    17  C    0.414457
    18  N   -0.542590
    19  C    0.551447
 Electronic spatial extent (au):  <R**2>=           8439.0748
 Charge=             -0.0000 electrons
 Dipole moment (field-independent basis, Debye):
    X=             -4.2932    Y=             -0.2689    Z=              0.0027  Tot=              4.3017
 Quadrupole moment (field-independent basis, Debye-Ang):
   XX=           -100.4189   YY=           -117.0062   ZZ=           -121.1720
   XY=             -5.0766   XZ=             -0.0054   YZ=              0.0060
 Traceless Quadrupole moment (field-independent basis, Debye-Ang):
   XX=             12.4468   YY=             -4.1405   ZZ=             -8.3063
   XY=             -5.0766   XZ=             -0.0054   YZ=              0.0060
 Octapole moment (field-independent basis, Debye-Ang**2):
  XXX=             38.9641  YYY=            -34.4407  ZZZ=              0.0030  XYY=             15.4153
  XXY=             12.5907  XXZ=              0.0079  XZZ=             58.4869  YZZ=              0.0276
  YYZ=              0.0231  XYZ=             -0.0116
 Hexadecapole moment (field-independent basis, Debye-Ang**3):
 XXXX=          -7724.2275 YYYY=          -1472.6005 ZZZZ=           -128.0684 XXXY=           -108.3110
 XXXZ=              0.0416 YYYX=           -129.6586 YYYZ=              0.0303 ZZZX=              0.0031
 ZZZY=              0.0006 XXYY=          -1475.4291 XXZZ=          -1497.5354 YYZZ=           -282.3257
 XXYZ=              0.0203 YYXZ=             -0.0300 ZZXY=            -56.7101
 N-N= 1.614748087800D+03 E-N=-1.112161269337D+04  KE= 3.307495847014D+03
 No NMR shielding tensors so no spin-rotation constants.
 Leave Link  601 at Mon Jan 19 00:01:31 2026, MaxMem=  8053063680 cpu:               1.9 elap:               0.1
 (Enter /appl/Gaussian16/AVX_revB01/g16/l701.exe)
 ... and contract with generalized density number  0.
 Compute integral first derivatives.
 Leave Link  701 at Mon Jan 19 00:01:31 2026, MaxMem=  8053063680 cpu:               1.9 elap:               0.2
 (Enter /appl/Gaussian16/AVX_revB01/g16/l702.exe)
 L702 exits ... SP integral derivatives will be done elsewhere.
 Leave Link  702 at Mon Jan 19 00:01:32 2026, MaxMem=  8053063680 cpu:               0.4 elap:               0.0
 (Enter /appl/Gaussian16/AVX_revB01/g16/l703.exe)
 Integral derivatives from FoFJK, PRISM(SPDF).
 Compute integral first derivatives, UseDBF=F ICtDFT=           0.
 Calling FoFJK, ICntrl=      2127 FMM=F ISym2X=0 I1Cent= 0 IOpClX= 0 NMat=1 NMatS=1 NMatT=0.
 FoFJK:  IHMeth= 1 ICntrl=    2127 DoSepK=F KAlg= 0 I1Cent=           0 FoldK=F
 IRaf=         0 NMat=       1 IRICut=       1 DoRegI=T DoRafI=F ISym2E= 0 IDoP0=0 IntGTp=1.
 FoFCou: FMM=F IPFlag=           0 FMFlag=      100000 FMFlg1=         800
         NFxFlg=           0 DoJE=F BraDBF=F KetDBF=F FulRan=T
         wScrn=  0.000000 ICntrl=      2127 IOpCl=  0 I1Cent=           0 NGrid=           0
         NMat0=    1 NMatS0=      1 NMatT0=    0 NMatD0=    1 NMtDS0=    0 NMtDT0=    0
 Symmetry not used in FoFCou.
 Leave Link  703 at Mon Jan 19 00:01:37 2026, MaxMem=  8053063680 cpu:              81.4 elap:               5.1
 (Enter /appl/Gaussian16/AVX_revB01/g16/l716.exe)
 Dipole        =-1.68909331D+00-1.05802737D-01 1.04949239D-03
 ***** Axes restored to original set *****
 -------------------------------------------------------------------
 Center     Atomic                   Forces (Hartrees/Bohr)
 Number     Number              X              Y              Z
 -------------------------------------------------------------------
      1        6          -0.001759603    0.005008973    0.000515319
      2        7          -0.007417951    0.004625360    0.000557361
      3        6          -0.001750746   -0.006913293   -0.000803382
      4        6          -0.002830311    0.006683087    0.000738404
      5        6          -0.005423210    0.000027952   -0.000011536
      6        6          -0.003032293   -0.008526724   -0.000932619
      7        6           0.002696574   -0.000359809   -0.000027377
      8        6           0.000588222   -0.000633442   -0.000069611
      9        6          -0.002928774    0.006602087    0.000705878
     10        7          -0.001172400   -0.012159506   -0.001312669
     11        6           0.002459913    0.002086900    0.000229192
     12        6           0.002160050   -0.000295921   -0.000024118
     13        6           0.004962119   -0.006962109   -0.000740962
     14       35           0.003457439   -0.000778221   -0.000075457
     15        6           0.010750695   -0.000920251   -0.000071211
     16        7          -0.006324043    0.016896899    0.001812905
     17        6          -0.000112839   -0.006174770   -0.000664524
     18        7          -0.010579260    0.008879877    0.000950664
     19        6           0.019824694   -0.004161613   -0.000440168
     20        1          -0.001550200    0.001307529    0.002163582
     21        1          -0.001539987    0.001759713   -0.001834141
     22        1           0.000825169    0.001990800    0.000212971
     23        1          -0.003116543    0.003912372    0.000409808
     24        1          -0.004849063   -0.000221699   -0.000035632
     25        1          -0.002123562   -0.004559804   -0.000498174
     26        1           0.002830135   -0.004470960   -0.000480316
     27        1           0.000599930   -0.003509542   -0.000381627
     28        1           0.005355846    0.000866118    0.000107440
 -------------------------------------------------------------------
 Cartesian Forces:  Max     0.019824694 RMS     0.004741405
 Leave Link  716 at Mon Jan 19 00:01:37 2026, MaxMem=  8053063680 cpu:               0.6 elap:               0.0
 (Enter /appl/Gaussian16/AVX_revB01/g16/l103.exe)

 GradGradGradGradGradGradGradGradGradGradGradGradGradGradGradGradGradGrad
 Berny optimization.
 FormGI is forming the generalized inverse of G from B-inverse, IUseBI=4.
 Internal  Forces:  Max     0.020362692 RMS     0.004411682
 Search for a local minimum.
 Step number   1 out of a maximum of  166
 All quantities printed in internal units (Hartrees-Bohrs-Radians)
 RMS Force = .44117D-02 SwitMx=.10000D-02 MixMth= 1
 Mixed Optimization -- RFO/linear search
 Second derivative matrix not updated -- first step.
 ITU=  0
     Eigenvalues ---    0.01207   0.01679   0.01781   0.01924   0.01946
     Eigenvalues ---    0.01974   0.02000   0.02021   0.02089   0.02114
     Eigenvalues ---    0.02170   0.02194   0.02222   0.02230   0.02251
     Eigenvalues ---    0.02260   0.02277   0.02289   0.02290   0.02293
     Eigenvalues ---    0.02365   0.02626   0.02667   0.07606   0.07931
     Eigenvalues ---    0.16000   0.16000   0.16000   0.16000   0.16000
     Eigenvalues ---    0.16000   0.16000   0.16000   0.16000   0.18229
     Eigenvalues ---    0.22000   0.22597   0.23312   0.23530   0.24517
     Eigenvalues ---    0.25000   0.25000   0.25000   0.25000   0.25000
     Eigenvalues ---    0.25000   0.25000   0.25000   0.33873   0.34582
     Eigenvalues ---    0.34582   0.35014   0.35742   0.36018   0.36082
     Eigenvalues ---    0.36087   0.36136   0.36205   0.37442   0.38065
     Eigenvalues ---    0.39743   0.40054   0.42803   0.43725   0.43758
     Eigenvalues ---    0.45211   0.46696   0.47630   0.48022   0.48517
     Eigenvalues ---    0.49417   0.52089   0.52454   0.53963   0.55127
     Eigenvalues ---    0.62923   0.64134   0.65235
 RFO step:  Lambda=-6.19095251D-03 EMin= 1.20745888D-02
 Linear search not attempted -- first point.
 Iteration  1 RMS(Cart)=  0.02695956 RMS(Int)=  0.00005303
 Iteration  2 RMS(Cart)=  0.00008146 RMS(Int)=  0.00000761
 Iteration  3 RMS(Cart)=  0.00000001 RMS(Int)=  0.00000761
 ITry= 1 IFail=0 DXMaxC= 1.27D-01 DCOld= 1.00D+10 DXMaxT= 3.00D-01 DXLimC= 3.00D+00 Rises=F
 Variable       Old X    -DE/DX   Delta X   Delta X   Delta X     New X
                                 (Linear)    (Quad)   (Total)
    R1        2.71481   0.01088   0.00000   0.02674   0.02674   2.74155
    R2        2.06359   0.00277   0.00000   0.00788   0.00788   2.07146
    R3        2.06358   0.00278   0.00000   0.00788   0.00788   2.07147
    R4        2.05652   0.00185   0.00000   0.00518   0.00518   2.06170
    R5        2.61434   0.01247   0.00000   0.02666   0.02666   2.64100
    R6        2.55726   0.01932   0.00000   0.03662   0.03663   2.59389
    R7        2.61662   0.01039   0.00000   0.02107   0.02107   2.63769
    R8        2.67514   0.00580   0.00000   0.01154   0.01152   2.68666
    R9        2.61709   0.01109   0.00000   0.02329   0.02330   2.64039
   R10        2.03869   0.00501   0.00000   0.01364   0.01364   2.05233
   R11        2.63084   0.01145   0.00000   0.02484   0.02486   2.65570
   R12        2.04053   0.00485   0.00000   0.01323   0.01323   2.05376
   R13        2.61187   0.01110   0.00000   0.02270   0.02271   2.63458
   R14        2.03946   0.00505   0.00000   0.01377   0.01377   2.05322
   R15        2.62265   0.00960   0.00000   0.01928   0.01928   2.64193
   R16        2.03762   0.00530   0.00000   0.01441   0.01441   2.05202
   R17        2.71116   0.01081   0.00000   0.02425   0.02425   2.73541
   R18        2.46637   0.01054   0.00000   0.01564   0.01563   2.48200
   R19        2.73881   0.00373   0.00000   0.00851   0.00851   2.74731
   R20        2.55654   0.01218   0.00000   0.02248   0.02248   2.57903
   R21        2.65846   0.00930   0.00000   0.01906   0.01906   2.67752
   R22        2.71076   0.00751   0.00000   0.01880   0.01882   2.72958
   R23        2.58710   0.00552   0.00000   0.00964   0.00963   2.59673
   R24        2.03953   0.00357   0.00000   0.00972   0.00972   2.04925
   R25        3.59131   0.00350   0.00000   0.01857   0.01857   3.60988
   R26        2.65950   0.00900   0.00000   0.02038   0.02037   2.67987
   R27        2.45545   0.02036   0.00000   0.03098   0.03098   2.48643
   R28        2.04487   0.00477   0.00000   0.01312   0.01312   2.05799
   R29        2.53914   0.01453   0.00000   0.02645   0.02646   2.56559
   R30        2.54646   0.01417   0.00000   0.02551   0.02551   2.57197
   R31        2.47368   0.00411   0.00000   0.00599   0.00599   2.47966
    A1        1.92901   0.00107   0.00000   0.00658   0.00656   1.93557
    A2        1.92910   0.00109   0.00000   0.00668   0.00665   1.93575
    A3        1.87600   0.00117   0.00000   0.00676   0.00673   1.88273
    A4        1.90433  -0.00102   0.00000  -0.00561  -0.00564   1.89869
    A5        1.91263  -0.00115   0.00000  -0.00720  -0.00722   1.90541
    A6        1.91259  -0.00116   0.00000  -0.00728  -0.00730   1.90529
    A7        2.20708  -0.00065   0.00000  -0.00461  -0.00461   2.20247
    A8        2.18110   0.00098   0.00000   0.00175   0.00176   2.18285
    A9        1.89500  -0.00034   0.00000   0.00286   0.00286   1.89786
   A10        2.25164  -0.00076   0.00000  -0.00178  -0.00176   2.24989
   A11        1.92140  -0.00100   0.00000  -0.00292  -0.00293   1.91847
   A12        2.11014   0.00176   0.00000   0.00470   0.00469   2.11483
   A13        2.05422  -0.00033   0.00000  -0.00114  -0.00115   2.05307
   A14        2.11754   0.00044   0.00000   0.00221   0.00221   2.11975
   A15        2.11142  -0.00011   0.00000  -0.00106  -0.00106   2.11036
   A16        2.12381  -0.00041   0.00000   0.00046   0.00047   2.12428
   A17        2.07866  -0.00003   0.00000  -0.00167  -0.00167   2.07698
   A18        2.08072   0.00045   0.00000   0.00121   0.00121   2.08192
   A19        2.11161  -0.00208   0.00000  -0.00776  -0.00774   2.10386
   A20        2.08132   0.00116   0.00000   0.00457   0.00456   2.08588
   A21        2.09026   0.00093   0.00000   0.00319   0.00318   2.09344
   A22        2.06344   0.00220   0.00000   0.00831   0.00831   2.07175
   A23        2.12482  -0.00140   0.00000  -0.00598  -0.00597   2.11884
   A24        2.09492  -0.00080   0.00000  -0.00233  -0.00233   2.09259
   A25        2.10315  -0.00113   0.00000  -0.00456  -0.00457   2.09858
   A26        1.85066   0.00122   0.00000   0.00053   0.00052   1.85118
[...]
 Alpha  occ. eigenvalues --   -0.91671  -0.86258  -0.83630  -0.81131  -0.77434
 Alpha  occ. eigenvalues --   -0.76371  -0.74400  -0.71710  -0.68254  -0.65030
 Alpha  occ. eigenvalues --   -0.63590  -0.61263  -0.59861  -0.56816  -0.55156
 Alpha  occ. eigenvalues --   -0.52425  -0.51671  -0.48892  -0.48746  -0.48240
 Alpha  occ. eigenvalues --   -0.46783  -0.45402  -0.44695  -0.44692  -0.43452
 Alpha  occ. eigenvalues --   -0.42037  -0.41382  -0.41061  -0.38965  -0.37840
 Alpha  occ. eigenvalues --   -0.37481  -0.36505  -0.35919  -0.33750  -0.32169
 Alpha  occ. eigenvalues --   -0.30198  -0.29854  -0.29245  -0.28159  -0.26063
 Alpha  occ. eigenvalues --   -0.24765  -0.23829  -0.22129
 Alpha virt. eigenvalues --   -0.08623  -0.03318  -0.01279   0.00024   0.00320
 Alpha virt. eigenvalues --    0.01380   0.08385   0.08846   0.10069   0.13390
 Alpha virt. eigenvalues --    0.13749   0.14413   0.14603   0.14797   0.15729
 Alpha virt. eigenvalues --    0.16918   0.16931   0.17828   0.18725   0.20230
 Alpha virt. eigenvalues --    0.21295   0.22408   0.23482   0.24851   0.26502
 Alpha virt. eigenvalues --    0.27524   0.27891   0.30704   0.31341   0.33247
 Alpha virt. eigenvalues --    0.34590   0.35637   0.36850   0.37941   0.40454
 Alpha virt. eigenvalues --    0.41003   0.42327   0.45805   0.45920   0.46142
 Alpha virt. eigenvalues --    0.46864   0.47203   0.47696   0.47903   0.48514
 Alpha virt. eigenvalues --    0.48759   0.49783   0.51622   0.52271   0.52663
 Alpha virt. eigenvalues --    0.54316   0.54621   0.55008   0.55951   0.56411
 Alpha virt. eigenvalues --    0.57711   0.58183   0.59365   0.59609   0.59771
 Alpha virt. eigenvalues --    0.60190   0.60418   0.61781   0.62734   0.64157
 Alpha virt. eigenvalues --    0.64225   0.65385   0.65453   0.68283   0.68617
 Alpha virt. eigenvalues --    0.69487   0.71717   0.72899   0.73376   0.73853
 Alpha virt. eigenvalues --    0.74083   0.78462   0.78770   0.79311   0.80198
 Alpha virt. eigenvalues --    0.80676   0.81314   0.82734   0.82858   0.83165
 Alpha virt. eigenvalues --    0.83565   0.85116   0.85686   0.86184   0.88259
 Alpha virt. eigenvalues --    0.88303   0.89958   0.90871   0.92249   0.92287
 Alpha virt. eigenvalues --    0.94195   0.94251   0.95126   0.96180   0.96718
 Alpha virt. eigenvalues --    0.98278   1.01288   1.02693   1.05763   1.07852
 Alpha virt. eigenvalues --    1.09837   1.12205   1.14583   1.16782   1.17262
 Alpha virt. eigenvalues --    1.19201   1.19651   1.21430   1.23648   1.24568
 Alpha virt. eigenvalues --    1.25183   1.26739   1.30151   1.30345   1.31916
 Alpha virt. eigenvalues --    1.31967   1.33572   1.36270   1.38491   1.39243
 Alpha virt. eigenvalues --    1.41696   1.43486   1.43695   1.44932   1.46298
 Alpha virt. eigenvalues --    1.47750   1.48298   1.48747   1.49415   1.51252
 Alpha virt. eigenvalues --    1.53612   1.57004   1.58929   1.63315   1.65320
 Alpha virt. eigenvalues --    1.67654   1.70440   1.72359   1.74023   1.76229
 Alpha virt. eigenvalues --    1.77391   1.79243   1.79341   1.80090   1.82960
 Alpha virt. eigenvalues --    1.84809   1.85096   1.85766   1.87651   1.88380
 Alpha virt. eigenvalues --    1.91214   1.91814   1.95153   1.95376   1.96290
 Alpha virt. eigenvalues --    1.99066   2.01034   2.02694   2.03071   2.05109
 Alpha virt. eigenvalues --    2.08665   2.10211   2.11846   2.12956   2.13548
 Alpha virt. eigenvalues --    2.16508   2.17150   2.18547   2.20566   2.20908
 Alpha virt. eigenvalues --    2.21326   2.23916   2.26020   2.26541   2.27657
 Alpha virt. eigenvalues --    2.31236   2.33133   2.33305   2.34602   2.36990
 Alpha virt. eigenvalues --    2.37251   2.39780   2.41969   2.43859   2.47329
 Alpha virt. eigenvalues --    2.51175   2.51384   2.53461   2.58482   2.58943
 Alpha virt. eigenvalues --    2.60874   2.62825   2.63329   2.64885   2.65147
 Alpha virt. eigenvalues --    2.67199   2.67414   2.69785   2.73845   2.75736
 Alpha virt. eigenvalues --    2.77551   2.79664   2.80886   2.83847   2.86298
 Alpha virt. eigenvalues --    2.88901   2.96819   2.99247   3.02752   3.06537
 Alpha virt. eigenvalues --    3.22206   3.26094   3.37726   3.44085   3.53625
 Alpha virt. eigenvalues --    4.03128   4.04880   4.06955   4.07664   4.11353
 Alpha virt. eigenvalues --    4.14584   4.17124   4.19517   4.25899   4.30253
 Alpha virt. eigenvalues --    4.36298   4.41349   4.42202   4.51204   4.63467
 Alpha virt. eigenvalues --    4.67659   4.77094   4.85867   8.60032  72.78931
          Condensed to atoms (all electrons):
               1          2          3          4          5          6
     1  C    4.998529   0.289779  -0.042875  -0.002987  -0.000129   0.000009
     2  N    0.289779   7.152240   0.273761  -0.093028   0.005607  -0.000253
     3  C   -0.042875   0.273761   4.700801   0.485930   0.002807  -0.041562
     4  C   -0.002987  -0.093028   0.485930   5.077731   0.512646  -0.026519
     5  C   -0.000129   0.005607   0.002807   0.512646   4.863511   0.526485
     6  C    0.000009  -0.000253  -0.041562  -0.026519   0.526485   4.911640
     7  C   -0.000073   0.009529  -0.067947  -0.054287  -0.023386   0.487566
     8  C    0.004428  -0.031448   0.456845  -0.054482  -0.038961   0.000897
     9  C    0.006758  -0.083327   0.022219   0.014715  -0.000087   0.009097
    10  N   -0.000095   0.006489   0.008061  -0.000126   0.000005   0.000169
    11  C   -0.000020   0.001087   0.000058   0.000006   0.000000   0.000004
    12  C    0.000000   0.000010   0.000006  -0.000000  -0.000000  -0.000000
    13  C   -0.000000   0.000000  -0.000000   0.000000  -0.000000   0.000000
    14  Br  -0.000000  -0.000000   0.000000  -0.000000  -0.000000  -0.000000
    15  C    0.000000   0.000000  -0.000000   0.000000   0.000000  -0.000000
    16  N    0.000005  -0.000046  -0.000001  -0.000000   0.000000  -0.000000
    17  C    0.000058   0.002395  -0.000247  -0.000002   0.000000  -0.000000
    18  N   -0.006854  -0.080201  -0.000063  -0.000178   0.000002   0.000000
    19  C   -0.036050   0.280834  -0.092834   0.002776  -0.000141  -0.000364
    20  H    0.374903  -0.040808  -0.000622   0.002544   0.000000  -0.000001
    21  H    0.374934  -0.040804  -0.000621   0.002533   0.000000  -0.000001
    22  H    0.375754  -0.032740   0.001965   0.000068   0.000001  -0.000000
    23  H    0.004568  -0.008157  -0.035627   0.351836  -0.040873   0.004114
    24  H   -0.000001  -0.000106   0.002713  -0.039007   0.359351  -0.039019
    25  H   -0.000000   0.000004   0.001011   0.004337  -0.039470   0.360641
    26  H    0.000003  -0.000097   0.004806   0.000375   0.004330  -0.045466
    27  H    0.000000  -0.000000  -0.000000  -0.000000   0.000000   0.000000
    28  H    0.000000  -0.000000  -0.000000  -0.000000   0.000000  -0.000000
               7          8          9         10         11         12
     1  C   -0.000073   0.004428   0.006758  -0.000095  -0.000020   0.000000
     2  N    0.009529  -0.031448  -0.083327   0.006489   0.001087   0.000010
     3  C   -0.067947   0.456845   0.022219   0.008061   0.000058   0.000006
     4  C   -0.054287  -0.054482   0.014715  -0.000126   0.000006  -0.000000
     5  C   -0.023386  -0.038961  -0.000087   0.000005   0.000000  -0.000000
     6  C    0.487566   0.000897   0.009097   0.000169   0.000004  -0.000000
     7  C    5.096659   0.497761  -0.104307  -0.005058  -0.000061  -0.000002
     8  C    0.497761   4.949058   0.236500  -0.088852   0.001018  -0.000586
     9  C   -0.104307   0.236500   5.085663   0.459429  -0.045992  -0.000435
    10  N   -0.005058  -0.088852   0.459429   7.054123   0.368120  -0.063343
    11  C   -0.000061   0.001018  -0.045992   0.368120   4.797758   0.444848
    12  C   -0.000002  -0.000586  -0.000435  -0.063343   0.444848   5.128043
    13  C   -0.000000   0.000004  -0.000170   0.005243  -0.005856   0.505505
    14  Br  -0.000000  -0.000000   0.000000  -0.000081   0.005000  -0.057667
    15  C    0.000000  -0.000000   0.000105   0.000070  -0.027206  -0.044973
    16  N   -0.000000   0.000024   0.000464   0.005291  -0.064305  -0.042464
    17  C    0.000009   0.004144  -0.027301  -0.059475   0.377235  -0.070674
    18  N   -0.000073   0.008356  -0.056755  -0.018824  -0.097891   0.003834
    19  C    0.016410  -0.020991   0.273095  -0.095676  -0.010171   0.002604
    20  H   -0.000008  -0.000127  -0.000030   0.000002   0.000001  -0.000000
    21  H   -0.000007  -0.000127  -0.000031   0.000002   0.000001  -0.000000
    22  H    0.000007  -0.000041   0.000393  -0.000012   0.000037  -0.000000
    23  H    0.000474   0.004381  -0.000243   0.000001  -0.000000   0.000000
    24  H    0.004189   0.001022   0.000010  -0.000000   0.000000  -0.000000
    25  H   -0.036800   0.001702  -0.000207  -0.000000  -0.000000  -0.000000
    26  H    0.358359  -0.035071  -0.008204   0.003756  -0.000015  -0.000003
    27  H    0.000005  -0.000011   0.000583   0.000033  -0.032072   0.349668
    28  H   -0.000000   0.000000   0.000002   0.000009   0.000302   0.003769
              13         14         15         16         17         18
     1  C   -0.000000  -0.000000   0.000000   0.000005   0.000058  -0.006854
     2  N    0.000000  -0.000000   0.000000  -0.000046   0.002395  -0.080201
     3  C   -0.000000   0.000000  -0.000000  -0.000001  -0.000247  -0.000063
     4  C    0.000000  -0.000000   0.000000  -0.000000  -0.000002  -0.000178
     5  C   -0.000000  -0.000000   0.000000   0.000000   0.000000   0.000002
     6  C    0.000000  -0.000000  -0.000000  -0.000000  -0.000000   0.000000
     7  C   -0.000000  -0.000000   0.000000  -0.000000   0.000009  -0.000073
     8  C    0.000004  -0.000000  -0.000000   0.000024   0.004144   0.008356
     9  C   -0.000170   0.000000   0.000105   0.000464  -0.027301  -0.056755
    10  N    0.005243  -0.000081   0.000070   0.005291  -0.059475  -0.018824
    11  C   -0.005856   0.005000  -0.027206  -0.064305   0.377235  -0.097891
    12  C    0.505505  -0.057667  -0.044973  -0.042464  -0.070674   0.003834
    13  C    4.937445   0.244792   0.417379  -0.013092  -0.032542   0.000252
    14  Br   0.244792  34.964790  -0.045986   0.004221   0.000451   0.000007
    15  C    0.417379  -0.045986   4.875553   0.459517  -0.053235   0.003030
    16  N   -0.013092   0.004221   0.459517   6.876454   0.378157  -0.085902
    17  C   -0.032542   0.000451  -0.053235   0.378157   4.710802   0.398494
    18  N    0.000252   0.000007   0.003030  -0.085902   0.398494   7.035018
    19  C   -0.000001  -0.000001   0.000002  -0.000820  -0.049419   0.423028
    20  H    0.000000  -0.000000  -0.000000  -0.000000  -0.000000   0.000359
    21  H    0.000000  -0.000000  -0.000000  -0.000000  -0.000000   0.000359
    22  H   -0.000000  -0.000000   0.000001  -0.000035   0.000031   0.016160
    23  H   -0.000000   0.000000  -0.000000  -0.000000  -0.000000   0.000001
    24  H    0.000000  -0.000000  -0.000000  -0.000000   0.000000  -0.000000
    25  H    0.000000   0.000000   0.000000  -0.000000  -0.000000  -0.000000
    26  H   -0.000000  -0.000000   0.000000  -0.000000   0.000002   0.000000
    27  H   -0.046307  -0.003364   0.005069  -0.000609   0.005488  -0.000124
    28  H   -0.066962   0.003210   0.379480  -0.050989   0.004256  -0.000074
              19         20         21         22         23         24
     1  C   -0.036050   0.374903   0.374934   0.375754   0.004568  -0.000001
     2  N    0.280834  -0.040808  -0.040804  -0.032740  -0.008157  -0.000106
     3  C   -0.092834  -0.000622  -0.000621   0.001965  -0.035627   0.002713
     4  C    0.002776   0.002544   0.002533   0.000068   0.351836  -0.039007
     5  C   -0.000141   0.000000   0.000000   0.000001  -0.040873   0.359351
     6  C   -0.000364  -0.000001  -0.000001  -0.000000   0.004114  -0.039019
     7  C    0.016410  -0.000008  -0.000007   0.000007   0.000474   0.004189
     8  C   -0.020991  -0.000127  -0.000127  -0.000041   0.004381   0.001022
     9  C    0.273095  -0.000030  -0.000031   0.000393  -0.000243   0.000010
    10  N   -0.095676   0.000002   0.000002  -0.000012   0.000001  -0.000000
    11  C   -0.010171   0.000001   0.000001   0.000037  -0.000000   0.000000
    12  C    0.002604  -0.000000  -0.000000  -0.000000   0.000000  -0.000000
    13  C   -0.000001   0.000000   0.000000  -0.000000  -0.000000   0.000000
    14  Br  -0.000001  -0.000000  -0.000000  -0.000000   0.000000  -0.000000
    15  C    0.000002  -0.000000  -0.000000   0.000001  -0.000000  -0.000000
    16  N   -0.000820  -0.000000  -0.000000  -0.000035  -0.000000  -0.000000
    17  C   -0.049419  -0.000000  -0.000000   0.000031  -0.000000   0.000000
    18  N    0.423028   0.000359   0.000359   0.016160   0.000001  -0.000000
    19  C    4.752828   0.000971   0.000969  -0.002368  -0.000008   0.000001
    20  H    0.000971   0.555230  -0.041738  -0.023405   0.000656  -0.000000
    21  H    0.000969  -0.041738   0.555230  -0.023440   0.000650  -0.000000
    22  H   -0.002368  -0.023405  -0.023440   0.473711  -0.000047  -0.000000
    23  H   -0.000008   0.000656   0.000650  -0.000047   0.583695  -0.005052
    24  H    0.000001  -0.000000  -0.000000  -0.000000  -0.005052   0.582688
    25  H    0.000005   0.000000   0.000000  -0.000000  -0.000157  -0.005153
    26  H    0.000098  -0.000000  -0.000000  -0.000000   0.000016  -0.000165
    27  H    0.000038  -0.000000  -0.000000   0.000000   0.000000  -0.000000
    28  H   -0.000006  -0.000000  -0.000000  -0.000000  -0.000000  -0.000000
              25         26         27         28
     1  C   -0.000000   0.000003   0.000000   0.000000
     2  N    0.000004  -0.000097  -0.000000  -0.000000
     3  C    0.001011   0.004806  -0.000000  -0.000000
     4  C    0.004337   0.000375  -0.000000  -0.000000
     5  C   -0.039470   0.004330   0.000000   0.000000
     6  C    0.360641  -0.045466   0.000000  -0.000000
     7  C   -0.036800   0.358359   0.000005  -0.000000
     8  C    0.001702  -0.035071  -0.000011   0.000000
     9  C   -0.000207  -0.008204   0.000583   0.000002
    10  N   -0.000000   0.003756   0.000033   0.000009
    11  C   -0.000000  -0.000015  -0.032072   0.000302
    12  C   -0.000000  -0.000003   0.349668   0.003769
    13  C    0.000000  -0.000000  -0.046307  -0.066962
    14  Br   0.000000  -0.000000  -0.003364   0.003210
    15  C    0.000000   0.000000   0.005069   0.379480
    16  N   -0.000000  -0.000000  -0.000609  -0.050989
    17  C   -0.000000   0.000002   0.005488   0.004256
    18  N   -0.000000   0.000000  -0.000124  -0.000074
    19  C    0.000005   0.000098   0.000038  -0.000006
    20  H    0.000000  -0.000000  -0.000000  -0.000000
    21  H    0.000000  -0.000000  -0.000000  -0.000000
    22  H   -0.000000  -0.000000   0.000000  -0.000000
    23  H   -0.000157   0.000016   0.000000  -0.000000
    24  H   -0.005153  -0.000165  -0.000000  -0.000000
    25  H    0.582004  -0.004284   0.000000   0.000000
    26  H   -0.004284   0.565461   0.000005  -0.000000
    27  H    0.000000   0.000005   0.546342  -0.000143
    28  H    0.000000  -0.000000  -0.000143   0.560689
 Mulliken charges:
               1
     1  C   -0.340644
     2  N   -0.610722
     3  C    0.321417
     4  C   -0.184883
     5  C   -0.131698
     6  C   -0.147435
     7  C   -0.178962
     8  C    0.104556
     9  C    0.218055
    10  N   -0.579260
    11  C    0.288112
    12  C   -0.158141
    13  C    0.054311
    14  Br  -0.115374
    15  C    0.031194
    16  N   -0.465871
    17  C    0.411373
    18  N   -0.541964
    19  C    0.555189
    20  H    0.172076
    21  H    0.172094
    22  H    0.213961
    23  H    0.139772
    24  H    0.138530
    25  H    0.136367
    26  H    0.156092
    27  H    0.175399
    28  H    0.166457
 Sum of Mulliken charges =  -0.00000
 Mulliken charges with hydrogens summed into heavy atoms:
               1
     1  C    0.217486
     2  N   -0.610722
     3  C    0.321417
     4  C   -0.045111
     5  C    0.006832
     6  C   -0.011068
     7  C   -0.022870
     8  C    0.104556
     9  C    0.218055
    10  N   -0.579260
    11  C    0.288112
    12  C    0.017259
    13  C    0.054311
    14  Br  -0.115374
    15  C    0.197650
    16  N   -0.465871
    17  C    0.411373
    18  N   -0.541964
    19  C    0.555189
 Electronic spatial extent (au):  <R**2>=           8550.2562
 Charge=             -0.0000 electrons
 Dipole moment (field-independent basis, Debye):
    X=             -4.1909    Y=             -0.3399    Z=              0.0012  Tot=              4.2047
 Quadrupole moment (field-independent basis, Debye-Ang):
   XX=            -99.7743   YY=           -117.1071   ZZ=           -121.6338
   XY=             -5.0953   XZ=             -0.0037   YZ=              0.0027
 Traceless Quadrupole moment (field-independent basis, Debye-Ang):
   XX=             13.0641   YY=             -4.2687   ZZ=             -8.7954
   XY=             -5.0953   XZ=             -0.0037   YZ=              0.0027
 Octapole moment (field-independent basis, Debye-Ang**2):
  XXX=             40.1320  YYY=            -35.5704  ZZZ=              0.0022  XYY=             14.4356
  XXY=             12.3288  XXZ=              0.0152  XZZ=             59.5697  YZZ=             -0.0495
  YYZ=              0.0111  XYZ=             -0.0035
 Hexadecapole moment (field-independent basis, Debye-Ang**3):
 XXXX=          -7799.1581 YYYY=          -1494.8371 ZZZZ=           -128.9089 XXXY=           -109.3290
 XXXZ=             -0.0443 YYYX=           -133.4033 YYYZ=              0.0133 ZZZX=              0.0119
 ZZZY=             -0.0011 XXYY=          -1491.6469 XXZZ=          -1521.5497 YYZZ=           -287.3590
 XXYZ=              0.0013 YYXZ=             -0.0158 ZZXY=            -58.4690
 N-N= 1.603670826872D+03 E-N=-1.109892878910D+04  KE= 3.306856342857D+03
 No NMR shielding tensors so no spin-rotation constants.
 Leave Link  601 at Mon Jan 19 00:02:50 2026, MaxMem=  8053063680 cpu:               2.5 elap:               0.3
 (Enter /appl/Gaussian16/AVX_revB01/g16/l9999.exe)
 1\1\GINC-CNODE11\FOpt\RB3LYP\6-31G(d)\C14H9Br1N4\JUNHKIM\19-Jan-2026\0
 \\#P b3lyp/6-31g* opt SCF=XQC\\Gaussian input prepared by ASE\\0,1\C,-
 1.7683914982,2.5822751845,0.4763459054\N,-1.2981700293,1.2184159529,0.
 3283945965\C,-2.0951610661,0.0770303347,0.2026512425\C,-3.4863774142,-
 0.0174803225,0.1889062231\C,-4.044727633,-1.2894426111,0.0495140666\C,
 -3.2458244322,-2.4383724071,-0.0731678179\C,-1.8564686,-2.3387576732,-
 0.0588982165\C,-1.2764741325,-1.0760164838,0.0795861428\C,0.0899273728
 ,-0.6045943325,0.1341995393\N,1.2356911442,-1.2433289609,0.0678227629\
 C,2.3398088304,-0.4432213361,0.1575400375\C,3.6234923912,-1.0352441755
 ,0.0965747083\C,4.722867583,-0.217973279,0.1881904851\Br,6.4918509552,
 -0.9270375645,0.1157685121\C,4.5495433025,1.1806980988,0.3396557483\N,
 3.3703645612,1.7630728137,0.3998403491\C,2.258823358,0.9875918367,0.31
 27140917\N,1.0597405894,1.6323649283,0.3795727166\C,0.0235369282,0.836
 7310741,0.2904584324\H,-2.373756052,2.6877317711,1.3838230505\H,-2.368
 1174882,2.8822736156,-0.3905107662\H,-0.8924723556,3.2285131513,0.5499
 30973\H,-4.1164132115,0.8613967597,0.2826573702\H,-5.1265639105,-1.389
 8758551,0.0359155982\H,-3.7179167517,-3.4103008218,-0.1798138536\H,-1.
 2263483045,-3.2180306661,-0.1527341299\H,3.7018440563,-2.110525624,-0.
 0200017208\H,5.4256898073,1.822108592,0.4116079524\\Version=ES64L-G16R
 evB.01\State=1-A\HF=-3329.6500482\RMSD=5.979e-09\RMSF=1.035e-04\Dipole
 =-1.6508442,-0.1050441,-0.0151405\Quadrupole=9.5820679,-3.08201,-6.500
 0579,-3.9829332,-0.3941728,0.3673561\PG=C01 [X(C14H9Br1N4)]\\@


 IN NATURE THERE ARE NEITHER REWARDS OR
 PUNISHMENTS -- THERE ARE CONSEQUENCES.

                            -- ROBERT GREEN INGERSOLL
 Job cpu time:       0 days  0 hours 22 minutes 59.5 seconds.
 Elapsed time:       0 days  0 hours  1 minutes 28.1 seconds.
 File lengths (MBytes):  RWF=     81 Int=      0 D2E=      0 Chk=     10 Scr=      2
 Normal termination of Gaussian 16 at Mon Jan 19 00:02:50 2026.
