
                                 *****************
                                 * O   R   C   A *
                                 *****************

           --- An Ab Initio, DFT and Semiempirical electronic structure package ---

                  #######################################################
                  #                        -***-                        #
                  #          Department of theory and spectroscopy      #
                  #               Directorship: Frank Neese             #
                  #        Max Planck Institute fuer Kohlenforschung    #
                  #                Kaiser Wilhelm Platz 1               #
                  #                 D-45470 Muelheim/Ruhr               #
                  #                      Germany                        #
                  #                                                     #
                  #                  All rights reserved                #
                  #                        -***-                        #
                  #######################################################


                         Program Version 4.2.1 -  RELEASE  -


 With contributions from (in alphabetic order):
   Daniel Aravena         : Magnetic Suceptibility
   Michael Atanasov       : Ab Initio Ligand Field Theory (pilot matlab implementation)
   Alexander A. Auer      : GIAO ZORA, VPT2
   Ute Becker             : Parallelization
   Giovanni Bistoni       : ED, misc. LED, open-shell LED, HFLD
   Martin Brehm           : Molecular dynamics
   Dmytro Bykov           : SCF Hessian
   Vijay G. Chilkuri      : MRCI spin determinant printing, contributions to CSF-ICE
   Dipayan Datta          : RHF DLPNO-CCSD density
   Achintya Kumar Dutta   : EOM-CC, STEOM-CC
   Dmitry Ganyushin       : Spin-Orbit,Spin-Spin,Magnetic field MRCI
   Miquel Garcia          : C-PCM Hessian, Gaussian charge scheme
   Yang Guo               : DLPNO-NEVPT2, CIM, IAO-localization
   Andreas Hansen         : Spin unrestricted coupled pair/coupled cluster methods
   Benjamin Helmich-Paris : CASSCF linear response (MC-RPA)
   Lee Huntington         : MR-EOM, pCC
   Robert Izsak           : Overlap fitted RIJCOSX, COSX-SCS-MP3, EOM
   Christian Kollmar      : KDIIS, OOCD, Brueckner-CCSD(T), CCSD density
   Simone Kossmann        : Meta GGA functionals, TD-DFT gradient, OOMP2, MP2 Hessian
   Martin Krupicka        : AUTO-CI
   Lucas Lang             : DCDCAS
   Dagmar Lenk            : GEPOL surface, SMD
   Dimitrios Liakos       : Extrapolation schemes; Compound Job, initial MDCI parallelization
   Dimitrios Manganas     : Further ROCIS development; embedding schemes
   Dimitrios Pantazis     : SARC Basis sets
   Taras Petrenko         : DFT Hessian,TD-DFT gradient, ASA, ECA, R-Raman, ABS, FL, XAS/XES, NRVS
   Peter Pinski           : DLPNO-MP2, DLPNO-MP2 Gradient
   Christoph Reimann      : Effective Core Potentials
   Marius Retegan         : Local ZFS, SOC
   Christoph Riplinger    : Optimizer, TS searches, QM/MM, DLPNO-CCSD(T), (RO)-DLPNO pert. Triples
   Tobias Risthaus        : Range-separated hybrids, TD-DFT gradient, RPA, STAB
   Michael Roemelt        : Original ROCIS implementation
   Masaaki Saitow         : Open-shell DLPNO-CCSD energy and density
   Barbara Sandhoefer     : DKH picture change effects
   Avijit Sen             : IP-ROCIS
   Kantharuban Sivalingam : CASSCF convergence, NEVPT2, FIC-MRCI
   Bernardo de Souza      : ESD, SOC TD-DFT
   Georgi Stoychev        : AutoAux, RI-MP2 NMR
   Willem Van den Heuvel  : Paramagnetic NMR
   Boris Wezisla          : Elementary symmetry handling
   Frank Wennmohs         : Technical directorship


 We gratefully acknowledge several colleagues who have allowed us to
 interface, adapt or use parts of their codes:
   Stefan Grimme, W. Hujo, H. Kruse,             : VdW corrections, initial TS optimization,
                  C. Bannwarth                     DFT functionals, gCP, sTDA/sTD-DF
   Ed Valeev, F. Pavosevic, A. Kumar             : LibInt (2-el integral package), F12 methods
   Garnet Chan, S. Sharma, J. Yang, R. Olivares  : DMRG
   Ulf Ekstrom                                   : XCFun DFT Library
   Mihaly Kallay                                 : mrcc  (arbitrary order and MRCC methods)
   Andreas Klamt, Michael Diedenhofen            : otool_cosmo (COSMO solvation model)
   Jiri Pittner, Ondrej Demel                    : Mk-CCSD
   Frank Weinhold                                : gennbo (NPA and NBO analysis)
   Christopher J. Cramer and Donald G. Truhlar   : smd solvation model
   Lars Goerigk                                  : TD-DFT with DH, B97 family of functionals
   V. Asgeirsson, H. Jonsson                     : NEB implementation
   FAccTs GmbH                                   : IRC, NEB, NEB-TS, Multilevel, MM, QM/MM, CI optimization
   S Lehtola, MJT Oliveira, MAL Marques          : LibXC Library


 Your calculation uses the libint2 library for the computation of 2-el integrals
 For citations please refer to: http://libint.valeyev.net

 Your ORCA version has been built with support for libXC version: 4.2.3
 For citations please refer to: https://tddft.org/programs/libxc/

 This ORCA versions uses:
   CBLAS   interface :  Fast vector & matrix operations
   LAPACKE interface :  Fast linear algebra routines
   SCALAPACK package :  Parallel linear algebra routines


Your calculation utilizes the semiempirical GFN2-xTB method
Please cite in your paper:
C. Bannwarth, Ehlert S., S. Grimme,  J. Chem. Theory Comput., 15, (2019), 1652.
   

----- Orbital basis set information -----
Your calculation utilizes the basis: def2-SVP
   F. Weigend and R. Ahlrichs, Phys. Chem. Chem. Phys. 7, 3297 (2005).

================================================================================
                                        WARNINGS
                       Please study these warnings very carefully!
================================================================================


WARNING: Geometry Optimization
  ===> : Switching off AutoStart
         For restart on a previous wavefunction, please use MOREAD

WARNING: Found dipole moment calculation with XTB calculation
  ===> : Switching off dipole moment calculation


WARNING: otool_xtb not available.
         Trying xtb instead   ... done.
  ===> : Now using xtb as program name.


INFO   : the flag for use of LIBINT has been found!

================================================================================
                                       INPUT FILE
================================================================================
NAME = pre_opt.inp
|  1> ! XTB2 Opt
|  2> * xyz 0 1
|  3> C     -1.841972    2.610547    0.471871
|  4> N     -1.352368    1.237788    0.381577
|  5> C     -2.085215    0.101717    0.242970
|  6> C     -3.476211   -0.021202    0.199350
|  7> C     -4.021203   -1.309297    0.038957
|  8> C     -3.179670   -2.438840   -0.078167
|  9> C     -1.781064   -2.296366   -0.038107
| 10> C     -1.269499   -1.012401    0.124397
| 11> C      0.016585   -0.537279    0.183399
| 12> N      1.202519   -1.184915    0.095586
| 13> C      2.344172   -0.435740    0.165614
| 14> C      3.600406   -1.038661    0.085023
| 15> C      4.752141   -0.249375    0.157000
| 16> Br     6.478600   -1.058498    0.048699
| 17> C      4.632859    1.137509    0.308512
| 18> N      3.404881    1.718265    0.385727
| 19> C      2.264754    0.982141    0.319890
| 20> N      1.045668    1.595665    0.399392
| 21> C     -0.066542    0.822528    0.332176
| 22> H     -2.647310    2.674252    1.233358
| 23> H     -2.241516    2.928004   -0.513849
| 24> H     -1.023074    3.298821    0.769841
| 25> H     -4.121310    0.843307    0.284365
| 26> H     -5.095447   -1.435431    0.003041
| 27> H     -3.614945   -3.421755   -0.202964
| 28> H     -1.128048   -3.154297   -0.133162
| 29> H      3.683789   -2.112014   -0.032743
| 30> H      5.519018    1.755529    0.364791
| 31> *
| 32> 
| 33>                          ****END OF INPUT****
================================================================================

                       *****************************
                       * Geometry Optimization Run *
                       *****************************

Geometry optimization settings:
Update method            Update   .... BFGS
Choice of coordinates    CoordSys .... Z-matrix Internals
Initial Hessian          InHess   .... Almoef's Model

Convergence Tolerances:
Energy Change            TolE     ....  5.0000e-06 Eh
Max. Gradient            TolMAXG  ....  3.0000e-04 Eh/bohr
RMS Gradient             TolRMSG  ....  1.0000e-04 Eh/bohr
Max. Displacement        TolMAXD  ....  4.0000e-03 bohr
RMS Displacement         TolRMSD  ....  2.0000e-03 bohr
Strict Convergence                ....  False
------------------------------------------------------------------------------
                        ORCA OPTIMIZATION COORDINATE SETUP
------------------------------------------------------------------------------

The optimization will be done in new redundant internal coordinates
Making redundant internal coordinates   ...  (new redundants) done
Evaluating the initial hessian          ...  (Almloef) done
Evaluating the coordinates              ...  done
Calculating the B-matrix                .... done
Calculating the G-matrix                .... done
Diagonalizing the G-matrix              .... done
Small eigenvalue found = 1.616e-02
The first mode is                       ....   78
The number of degrees of freedom        ....   78

    -----------------------------------------------------------------
                    Redundant Internal Coordinates


    -----------------------------------------------------------------
         Definition                    Initial Value    Approx d2E/dq
    -----------------------------------------------------------------
      1. B(N   1,C   0)                  1.4603         0.432310   
      2. B(C   2,N   1)                  1.3590         0.627051   
      3. B(C   3,C   2)                  1.3971         0.608716   
      4. B(C   4,C   3)                  1.4078         0.585225   
      5. B(C   5,C   4)                  1.4134         0.573283   
      6. B(C   6,C   5)                  1.4064         0.588234   
      7. B(C   7,C   2)                  1.3859         0.634285   
      8. B(C   7,C   6)                  1.3916         0.621035   
      9. B(C   8,C   7)                  1.3723         0.666749   
     10. B(N   9,C   8)                  1.3541         0.638490   
     11. B(C  10,N   9)                  1.3673         0.608240   
     12. B(C  11,C  10)                  1.3958         0.611725   
     13. B(C  12,C  11)                  1.3981         0.606508   
     14. B(Br 13,C  12)                  1.9097         0.311197   
     15. B(C  14,C  12)                  1.4002         0.601762   
     16. B(N  15,C  14)                  1.3606         0.623474   
     17. B(C  16,N  15)                  1.3587         0.627756   
     18. B(C  16,C  10)                  1.4285         0.542475   
     19. B(N  17,C  16)                  1.3671         0.608759   
     20. B(C  18,N  17)                  1.3562         0.633587   
     21. B(C  18,C   8)                  1.3704         0.671332   
     22. B(C  18,N   1)                  1.3521         0.643146   
     23. B(H  19,C   0)                  1.1102         0.334375   
     24. B(H  20,C   0)                  1.1100         0.334614   
     25. B(H  21,C   0)                  1.1105         0.334037   
     26. B(H  22,C   3)                  1.0820         0.370820   
     27. B(H  23,C   4)                  1.0822         0.370541   
     28. B(H  24,C   5)                  1.0822         0.370565   
     29. B(H  25,C   6)                  1.0824         0.370345   
     30. B(H  26,C  11)                  1.0830         0.369468   
     31. B(H  27,C  14)                  1.0818         0.371048   
     32. A(H  20,C   0,H  21)          109.0548         0.284167   
     33. A(H  19,C   0,H  21)          108.3810         0.284135   
     34. A(N   1,C   0,H  20)          109.5508         0.326250   
     35. A(N   1,C   0,H  19)          109.8513         0.326212   
     36. A(N   1,C   0,H  21)          110.6105         0.326158   
     37. A(H  19,C   0,H  20)          109.3659         0.284211   
     38. A(C   0,N   1,C  18)          127.5768         0.404417   
     39. A(C   2,N   1,C  18)          104.6164         0.432115   
     40. A(C   0,N   1,C   2)          127.6884         0.402612   
     41. A(C   3,C   2,C   7)          120.8381         0.434411   
     42. A(N   1,C   2,C   7)          111.3061         0.433877   
     43. A(N   1,C   2,C   3)          127.8520         0.430680   
     44. A(C   2,C   3,C   4)          118.0010         0.428174   
     45. A(C   4,C   3,H  22)          120.6098         0.351219   
     46. A(C   2,C   3,H  22)          121.3892         0.353565   
     47. A(C   3,C   4,C   5)          120.6739         0.423601   
     48. A(C   3,C   4,H  23)          119.6492         0.351174   
     49. A(C   5,C   4,H  23)          119.6768         0.349953   
     50. A(C   4,C   5,C   6)          120.5815         0.423990   
     51. A(C   4,C   5,H  24)          119.7304         0.349957   
     52. A(C   6,C   5,H  24)          119.6877         0.351482   
     53. A(C   5,C   6,H  25)          121.1430         0.351447   
     54. A(C   7,C   6,H  25)          121.3181         0.354690   
     55. A(C   5,C   6,C   7)          117.5387         0.430111   
     56. A(C   6,C   7,C   8)          131.9863         0.439923   
     57. A(C   2,C   7,C   8)          105.6403         0.441604   
     58. A(C   2,C   7,C   6)          122.3659         0.435981   
     59. A(N   9,C   8,C  18)          122.3256         0.439769   
     60. A(C   7,C   8,C  18)          106.9391         0.446163   
     61. A(C   7,C   8,N   9)          130.7230         0.439226   
     62. A(C   8,N   9,C  10)          117.7678         0.429198   
     63. A(N   9,C  10,C  11)          120.7877         0.428712   
     64. A(C  11,C  10,C  16)          119.0154         0.422773   
     65. A(N   9,C  10,C  16)          120.1968         0.419599   
     66. A(C  10,C  11,C  12)          119.6439         0.431309   
     67. A(C  12,C  11,H  26)          120.1116         0.353129   
     68. A(C  10,C  11,H  26)          120.2445         0.353641   
     69. A(Br 13,C  12,C  14)          120.1852         0.407146   
     70. A(C  11,C  12,C  14)          119.6409         0.430039   
     71. A(C  11,C  12,Br 13)          120.1740         0.407712   
     72. A(C  12,C  14,H  27)          120.1106         0.352914   
     73. A(N  15,C  14,H  27)          119.5046         0.352851   
     74. A(C  12,C  14,N  15)          120.3848         0.429352   
     75. A(C  14,N  15,C  16)          121.5564         0.429798   
     76. A(N  15,C  16,N  17)          120.1538         0.427960   
     77. A(C  10,C  16,N  17)          120.0874         0.419663   
     78. A(C  10,C  16,N  15)          119.7587         0.421970   
     79. A(C  16,N  17,C  18)          118.2027         0.428670   
     80. A(N   1,C  18,C   8)          111.4927         0.440346   
     81. A(C   8,C  18,N  17)          121.4187         0.439158   
     82. A(N   1,C  18,N  17)          127.0846         0.432921   
     83. D(C   2,N   1,C   0,H  20)    -70.3976         0.015934   
     84. D(C  18,N   1,C   0,H  19)   -134.8199         0.015934   
     85. D(C  18,N   1,C   0,H  21)    -15.2186         0.015934   
     86. D(C   2,N   1,C   0,H  21)    169.3579         0.015934   
     87. D(C  18,N   1,C   0,H  20)    105.0260         0.015934   
     88. D(C   2,N   1,C   0,H  19)     49.7566         0.015934   
     89. D(C   7,C   2,N   1,C   0)    176.9626         0.031896   
     90. D(C   3,C   2,N   1,C   0)     -2.3260         0.031896   
     91. D(C   3,C   2,N   1,C  18)   -178.5790         0.031896   
     92. D(C   7,C   2,N   1,C  18)      0.7096         0.031896   
     93. D(H  22,C   3,C   2,C   7)   -179.5849         0.025585   
     94. D(C   4,C   3,C   2,C   7)      0.3376         0.025585   
     95. D(C   4,C   3,C   2,N   1)    179.5658         0.025585   
     96. D(H  22,C   3,C   2,N   1)     -0.3568         0.025585   
     97. D(C   5,C   4,C   3,C   2)     -0.2048         0.023550   
     98. D(H  23,C   4,C   3,C   2)    179.9167         0.023550   
     99. D(C   5,C   4,C   3,H  22)    179.7184         0.023550   
    100. D(H  23,C   4,C   3,H  22)     -0.1602         0.023550   
    101. D(H  24,C   5,C   4,H  23)      0.0032         0.022556   
    102. D(H  24,C   5,C   4,C   3)   -179.8753         0.022556   
    103. D(C   6,C   5,C   4,H  23)    179.8060         0.022556   
    104. D(C   6,C   5,C   4,C   3)     -0.0725         0.022556   
    105. D(H  25,C   6,C   5,H  24)      0.1916         0.023805   
    106. D(H  25,C   6,C   5,C   4)   -179.6113         0.023805   
    107. D(C   7,C   6,C   5,H  24)   -179.9805         0.023805   
    108. D(C   7,C   6,C   5,C   4)      0.2166         0.023805   
    109. D(C   8,C   7,C   2,C   3)    178.9131         0.027919   
    110. D(C   8,C   7,C   2,N   1)     -0.4327         0.027919   
    111. D(C   6,C   7,C   2,C   3)     -0.1973         0.027919   
    112. D(C   2,C   7,C   6,C   5)     -0.0853         0.026694   
    113. D(C   6,C   7,C   2,N   1)   -179.5431         0.027919   
    114. D(C   8,C   7,C   6,H  25)      0.8947         0.026694   
    115. D(C   8,C   7,C   6,C   5)   -178.9328         0.026694   
    116. D(C   2,C   7,C   6,H  25)    179.7422         0.026694   
    117. D(C  18,C   8,C   7,C   6)    178.9607         0.031068   
    118. D(N   9,C   8,C   7,C   6)      0.2413         0.031068   
    119. D(C  18,C   8,C   7,C   2)     -0.0285         0.031068   
    120. D(N   9,C   8,C   7,C   2)   -178.7479         0.031068   
    121. D(C  10,N   9,C   8,C  18)      0.2647         0.030043   
    122. D(C  10,N   9,C   8,C   7)    178.8150         0.030043   
    123. D(C  16,C  10,N   9,C   8)     -0.2941         0.027069   
    124. D(C  11,C  10,N   9,C   8)    179.8543         0.027069   
    125. D(H  26,C  11,C  10,C  16)   -179.9579         0.025853   
    126. D(H  26,C  11,C  10,N   9)     -0.1045         0.025853   
    127. D(C  12,C  11,C  10,C  16)      0.0356         0.025853   
    128. D(C  12,C  11,C  10,N   9)    179.8890         0.025853   
    129. D(C  14,C  12,C  11,H  26)    179.9629         0.025389   
    130. D(C  14,C  12,C  11,C  10)     -0.0306         0.025389   
    131. D(Br 13,C  12,C  11,H  26)     -0.0182         0.025389   
    132. D(Br 13,C  12,C  11,C  10)    179.9883         0.025389   
    133. D(H  27,C  14,C  12,Br 13)     -0.0029         0.024971   
    134. D(H  27,C  14,C  12,C  11)   -179.9840         0.024971   
    135. D(N  15,C  14,C  12,Br 13)    179.9813         0.024971   
    136. D(N  15,C  14,C  12,C  11)      0.0003         0.024971   
    137. D(C  16,N  15,C  14,H  27)   -179.9903         0.028543   
    138. D(C  16,N  15,C  14,C  12)      0.0254         0.028543   
    139. D(N  17,C  16,N  15,C  14)   -179.9450         0.028966   
    140. D(C  10,C  16,N  15,C  14)     -0.0199         0.028966   
    141. D(N  17,C  16,C  10,C  11)    179.9143         0.020113   
    142. D(N  17,C  16,C  10,N   9)      0.0601         0.020113   
    143. D(N  15,C  16,C  10,C  11)     -0.0109         0.020113   
    144. D(N  15,C  16,C  10,N   9)   -179.8651         0.020113   
    145. D(C  18,N  17,C  16,C  10)      0.2133         0.027119   
    146. D(C  18,N  17,C  16,N  15)   -179.8618         0.027119   
    147. D(C   8,C  18,N  17,C  16)     -0.2519         0.029548   
    148. D(N   1,C  18,N  17,C  16)   -179.4641         0.029548   
    149. D(N  17,C  18,C   8,N   9)      0.0110         0.031529   
    150. D(N  17,C  18,C   8,C   7)   -178.8405         0.031529   
    151. D(N   1,C  18,C   8,N   9)    179.3356         0.031529   
    152. D(N   1,C  18,C   8,C   7)      0.4841         0.031529   
    153. D(N  17,C  18,N   1,C   2)    178.5483         0.033695   
    154. D(N  17,C  18,N   1,C   0)      2.2897         0.033695   
    155. D(C   8,C  18,N   1,C   2)     -0.7291         0.033695   
    156. D(C   8,C  18,N   1,C   0)   -176.9878         0.033695   
    -----------------------------------------------------------------

Number of atoms                         .... 28
Number of degrees of freedom            .... 156

         *************************************************************
         *                GEOMETRY OPTIMIZATION CYCLE   1            *
         *************************************************************
      -----------------------------------------------------------      
     |                   =====================                   |     
     |                           x T B                           |     
     |                   =====================                   |     
     |                         S. Grimme                         |     
     |          Mulliken Center for Theoretical Chemistry        |     
     |                    University of Bonn                     |     
      -----------------------------------------------------------      

   * xtb version 6.2.3 (830e466) compiled by 'ehlert@majestix' on 2020-03-16

   xtb is free software: you can redistribute it and/or modify it under
   the terms of the GNU Lesser General Public License as published by
   the Free Software Foundation, either version 3 of the License, or
   (at your option) any later version.
   
   xtb is distributed in the hope that it will be useful,
   but WITHOUT ANY WARRANTY; without even the implied warranty of
   MERCHANTABILITY or FITNESS FOR A PARTICULAR PURPOSE.  See the
   GNU Lesser General Public License for more details.
   
   Cite this work as:
   * S. Grimme, C. Bannwarth, P. Shushkov, J. Chem. Theory Comput., 2017,
     13, 1989-2009. DOI: 10.1021/acs.jctc.7b00118
   * C. Bannwarth, S. Ehlert and S. Grimme., J. Chem. Theory Comput., 2019,
     15, 1652-1671. DOI: 10.1021/acs.jctc.8b01176
   * P. Pracht, E. Caldeweyher, S. Ehlert, S. Grimme, ChemRxiv, 2019, preprint.
     DOI: 10.26434/chemrxiv.8326202.v1
   
   for DFT-D4:
   * E. Caldeweyher, C. Bannwarth and S. Grimme, J. Chem. Phys., 2017,
     147, 034112. DOI: 10.1063/1.4993215
   * E. Caldeweyher, S. Ehlert, A. Hansen, H. Neugebauer, S. Spicher,
     C. Bannwarth and S. Grimme, J. Chem. Phys., 2019, 150, 154122.
     DOI: 10.1063/1.5090222
   
   for sTDA-xTB:
   * S. Grimme and C. Bannwarth, J. Chem. Phys., 2016, 145, 054103.
     DOI: 10.1063/1.4959605
   
   in the mass-spec context:
   * V. Asgeirsson, C. Bauer and S. Grimme, Chem. Sci., 2017, 8, 4879.
     DOI: 10.1039/c7sc00601b
   
   for metadynamics refer to:
   * S. Grimme, J. Chem. Theory Comput., 2019, 155, 2847-2862
     DOI: 10.1021/acs.jctc.9b00143
   
   with help from (in alphabetical order)
   C. Bannwarth, F. Bohle, G. Brandenburg, E. Caldeweyher, M. Checinski,
   S. Dohm, S. Ehlert, S. Ehrlich, F. März, H. Neugebauer, J. Pisarek,
   P. Pracht, P. Shushkov, and S. Spicher.
   
 * started run on 2026/01/19 at 00:00:56.812     

           -------------------------------------------------
          |                Calculation Setup                |
           -------------------------------------------------

          program call               : /appl/orca_4.2.1/orca_4_2_1_linux_x86-64_openmpi314/xtb pre_opt_XTB.xyz --grad -c 0 -u 0 -P 1 --namespace pre_opt
          hostname                   : cnode11
          calculation namespace      : pre_opt
          coordinate file            : pre_opt_XTB.xyz
          omp threads                :                     1
          number of atoms            :                    28
          number of electrons        :                    92
          charge                     :                     0
          spin                       :                   0.0
          first test random number   :      0.85811889541340

########################################################################
[WARNING] Please study the warnings concerning your input carefully
-2- prog_main: XTBPATH is not set, using XTBHOME instead
-1- prog_main: XTBHOME is not set, using HOME instead
########################################################################
           ------------------------------------------------- 
          |                 G F N 2 - x T B                 |
          | Geometry, Frequencies, Noncovalent interactions |
          |            JCTC 2019 parametrisation            |
           ------------------------------------------------- 
             k(s)              :                1.8500
             k(p)              :                2.2300
             k(d)              :                2.2300
             k(f)              :                2.0000
             kEN (H0ij)        :               -2.0000
             D4 a1             :                0.5200
             D4 a2             :                5.0000
             D4 s6             :                1.0000
             D4 s8             :                2.7000
             D4 s9             :                5.0000
             alphaj            :                2.0000

  Z AO/shell   Hii/eV     exponent
  1     Wed Apr 25 08:07:45 CEST 2018   EN: 2.200 GM2: 0.406  GM3: 0.0800  RAES: 1.40
     1s    -10.707211    1.230000
  6     Wed Apr 25 08:07:45 CEST 2018   EN: 2.550 GM2: 0.538  GM3: 0.1500  RAES: 3.00
     2s    -13.970922    2.096432
     2p    -10.063292    1.800000
  7     Wed Apr 25 08:07:45 CEST 2018   EN: 3.040 GM2: 0.461  GM3:-0.0640  RAES: 1.90
     2s    -16.686243    2.339881
     2p    -12.523956    2.014332
 35     Tue Apr 24 12:21:41 CEST 2018   EN: 2.960 GM2: 0.261  GM3: 0.1300  RAES: 4.00
     4s    -23.583718    2.077587
     4p    -12.588824    2.263120
     4d      0.047980    1.845038

           ------------------------------------------------- 
          |        Self-Consistent Charge Iterations        |
           ------------------------------------------------- 

          ...................................................
          :                      SETUP                      :
          :.................................................:
          :  # basis functions                  91          :
          :  # atomic orbitals                  90          :
          :  # shells                           48          :
          :  # electrons                        92          :
          :  max. iterations                   250          :
          :  Hamiltonian                  GFN2-xTB          :
          :  restarted?                      false          :
          :  GBSA solvation                  false          :
          :  PC potential                    false          :
          :  electronic temp.          300.0000000     K    :
          :  accuracy                    1.0000000          :
          :  -> integral cutoff          0.2500000E+02      :
          :  -> integral neglect         0.1000000E-07      :
          :  -> SCF convergence          0.1000000E-05 Eh   :
          :  -> wf. convergence          0.1000000E-03 e    :
          :  Broyden damping             0.4000000          :
          ...................................................

 iter      E             dE          RMSdq      gap      omega  full diag
   1    -50.9917352 -0.509917E+02  0.499E+00    1.38       0.0  T
   2    -51.0646293 -0.728942E-01  0.327E+00    1.14       1.0  T
   3    -51.0588003  0.582903E-02  0.161E+00    1.04       1.0  T
   4    -51.0820922 -0.232919E-01  0.540E-01    0.89       1.0  T
   5    -51.0892694 -0.717718E-02  0.289E-01    0.89       1.0  T
   6    -51.0899574 -0.688044E-03  0.145E-01    0.90       1.0  T
   7    -51.0900285 -0.711036E-04  0.916E-02    0.89       1.0  T
   8    -51.0900520 -0.234776E-04  0.726E-02    0.89       1.0  T
   9    -51.0900705 -0.184787E-04  0.422E-02    0.89       1.0  T
  10    -51.0900876 -0.171361E-04  0.128E-02    0.89       1.5  T
  11    -51.0900892 -0.164608E-05  0.692E-03    0.89       2.7  T
  12    -51.0900894 -0.179205E-06  0.223E-03    0.89       8.5  T
  13    -51.0900895 -0.116544E-06  0.674E-04    0.89      28.1  T
  14    -51.0900895 -0.255280E-08  0.385E-04    0.89      49.1  T

   *** convergence criteria satisfied after 14 iterations ***

         #    Occupation            Energy/Eh            Energy/eV
      -------------------------------------------------------------
         1        2.0000           -0.8418738             -22.9086
       ...           ...                  ...                  ...
        40        2.0000           -0.4223324             -11.4922
        41        2.0000           -0.4192349             -11.4080
        42        2.0000           -0.4136267             -11.2554
        43        2.0000           -0.4088797             -11.1262
        44        2.0000           -0.3991473             -10.8613
        45        2.0000           -0.3926702             -10.6851
        46        2.0000           -0.3578015              -9.7363 (HOMO)
        47                         -0.3250371              -8.8447 (LUMO)
        48                         -0.2656958              -7.2299
        49                         -0.2514696              -6.8428
        50                         -0.2391667              -6.5081
        51                         -0.2207161              -6.0060
       ...                                ...                  ...
        90                          0.7590607              20.6551
      -------------------------------------------------------------
                  HL-Gap            0.0327643 Eh            0.8916 eV
             Fermi-level           -0.3414193 Eh           -9.2905 eV

 SCC (total)                   0 d,  0 h,  0 min,  0.064 sec
 SCC setup                      ...        0 min,  0.000 sec (  0.591%)
 Dispersion                     ...        0 min,  0.000 sec (  0.715%)
 integral evaluation            ...        0 min,  0.023 sec ( 36.311%)
 zeroth order Hamiltonian       ...        0 min,  0.000 sec (  0.448%)
 iterations                     ...        0 min,  0.022 sec ( 33.738%)
 molecular gradient             ...        0 min,  0.018 sec ( 27.940%)
 printout                       ...        0 min,  0.000 sec (  0.198%)

         :::::::::::::::::::::::::::::::::::::::::::::::::::::
         ::                     SUMMARY                     ::
         :::::::::::::::::::::::::::::::::::::::::::::::::::::
         :: total energy             -50.358851509014 Eh    ::
         :: gradient norm              0.180432607035 Eh/a0 ::
         :: HOMO-LUMO gap              0.891563252766 eV    ::
         ::.................................................::
         :: SCC energy               -51.090089536909 Eh    ::
         :: -> isotropic ES            0.033581888985 Eh    ::
         :: -> anisotropic ES          0.003531730672 Eh    ::
         :: -> anisotropic XC          0.036741685762 Eh    ::
         :: -> dispersion             -0.034335956294 Eh    ::
         :: repulsion energy           0.731490826473 Eh    ::
         :: add. restraining           0.000000000000 Eh    ::
         :::::::::::::::::::::::::::::::::::::::::::::::::::::

           -------------------------------------------------
          |                Property Printout                |
           -------------------------------------------------

    * Orbital Energies and Occupations

         #    Occupation            Energy/Eh            Energy/eV
      -------------------------------------------------------------
         1        2.0000           -0.8418738             -22.9086
       ...           ...                  ...                  ...
        34        2.0000           -0.4714697             -12.8293
        35        2.0000           -0.4681503             -12.7390
        36        2.0000           -0.4562392             -12.4149
        37        2.0000           -0.4471652             -12.1680
        38        2.0000           -0.4445599             -12.0971
        39        2.0000           -0.4411668             -12.0048
        40        2.0000           -0.4223324             -11.4922
        41        2.0000           -0.4192349             -11.4080
        42        2.0000           -0.4136267             -11.2554
        43        2.0000           -0.4088797             -11.1262
        44        2.0000           -0.3991473             -10.8613
        45        2.0000           -0.3926702             -10.6851
        46        2.0000           -0.3578015              -9.7363 (HOMO)
        47                         -0.3250371              -8.8447 (LUMO)
        48                         -0.2656958              -7.2299
        49                         -0.2514696              -6.8428
        50                         -0.2391667              -6.5081
        51                         -0.2207161              -6.0060
        52                         -0.2141465              -5.8272
        53                         -0.1687832              -4.5928
        54                         -0.1137573              -3.0955
        55                         -0.0818742              -2.2279
        56                         -0.0316953              -0.8625
        57                          0.0209409               0.5698
       ...                                ...                  ...
        90                          0.7590607              20.6551
      -------------------------------------------------------------
                  HL-Gap            0.0327643 Eh            0.8916 eV
             Fermi-level           -0.3414193 Eh           -9.2905 eV

     #   Z        covCN         q      C6AA      α(0)
     1   6 C      3.677    -0.049    21.689     6.672
     2   7 N      2.812    -0.035    21.920     6.954
     3   6 C      3.260     0.054    25.679     8.189
     4   6 C      2.908    -0.052    29.288     8.874
     5   6 C      2.910    -0.026    28.653     8.777
     6   6 C      2.912    -0.039    28.961     8.825
     7   6 C      2.907    -0.023    28.576     8.765
     8   6 C      3.148    -0.018    28.181     8.684
     9   6 C      3.111     0.078    26.124     8.373
    10   7 N      1.839    -0.247    27.296     7.743
    11   6 C      2.932     0.070    26.425     8.431
    12   6 C      2.976    -0.026    28.657     8.781
    13   6 C      2.898     0.067    26.497     8.440
    14  35 Br     1.037    -0.153   189.258    22.181
    15   6 C      2.911     0.056    26.754     8.482
    16   7 N      1.836    -0.225    26.751     7.665
    17   6 C      2.874     0.159    24.570     8.126
    18   7 N      1.838    -0.266    27.763     7.808
    19   6 C      3.200     0.137    24.508     8.067
    20   1 H      0.922     0.063     2.170     2.304
    21   1 H      0.922     0.062     2.181     2.309
    22   1 H      0.922     0.086     1.918     2.166
    23   1 H      0.925     0.039     2.464     2.455
    24   1 H      0.925     0.045     2.385     2.415
    25   1 H      0.925     0.043     2.409     2.427
    26   1 H      0.925     0.058     2.222     2.331
    27   1 H      0.925     0.073     2.054     2.241
    28   1 H      0.925     0.071     2.072     2.251

 Mol. C6AA /au·bohr⁶  :      14332.048502
 Mol. C8AA /au·bohr⁸  :     409605.486999
 Mol. α(0) /au        :        190.735713


Wiberg/Mayer (AO) data.
largest (>0.10) Wiberg bond orders for each atom
          total WBO             WBO to atom ...
     1  C   3.959        N    2 0.990    H   22 0.978    H   20 0.977    H   21 0.974
     2  N   3.578        C   19 1.199    C    3 1.131    C    1 0.990
     3  C   3.951        C    4 1.358    C    8 1.259    N    2 1.131
     4  C   3.982        C    5 1.454    C    3 1.358    H   23 0.969    C    7 0.108
     5  C   3.966        C    4 1.454    C    6 1.404    H   24 0.972
     6  C   3.981        C    7 1.468    C    5 1.404    H   25 0.972
     7  C   3.975        C    6 1.468    C    8 1.346    H   26 0.968    C    4 0.108
     8  C   3.984        C    7 1.346    C    3 1.259    C    9 1.173
     9  C   3.982        N   10 1.415    C    8 1.173    C   19 1.170
    10  N   3.041        C    9 1.415    C   11 1.301    N   18 0.106
    11  C   3.975        C   12 1.302    N   10 1.301    C   17 1.177
    12  C   3.970        C   13 1.467    C   11 1.302    H   27 0.963    N   16 0.111
    13  C   3.925        C   12 1.467    C   15 1.329    Br  14 0.985
    14  Br  1.129        C   13 0.985
    15  C   3.958        N   16 1.496    C   13 1.329    H   28 0.961
    16  N   3.066        C   15 1.496    C   17 1.298    C   12 0.111
    17  C   3.966        N   18 1.305    N   16 1.298    C   11 1.177
    18  N   3.028        C   19 1.386    C   17 1.305    N   10 0.106
    19  C   3.963        N   18 1.386    N    2 1.199    C    9 1.170
    20  H   0.994        C    1 0.977
    21  H   0.994        C    1 0.974
    22  H   0.992        C    1 0.978
    23  H   0.998        C    4 0.969
    24  H   0.998        C    5 0.972
    25  H   0.998        C    6 0.972
    26  H   0.996        C    7 0.968
    27  H   0.995        C   12 0.963
    28  H   0.994        C   15 0.961

molecular dipole:
                 x           y           z       tot (Debye)
 q only:       -2.221       0.356       0.038
   full:       -2.578       0.284       0.029       6.593
molecular quadrupole (traceless):
                xx          xy          yy          xz          yz          zz
 q only:       -6.815      -0.699       6.618      -1.227       0.941       0.197
  q+dip:      -10.307       0.671       7.374      -1.075       0.723       2.933
   full:      -12.431       0.044       4.023      -1.161      -0.307       8.408


           -------------------------------------------------
          | TOTAL ENERGY              -50.358851509014 Eh   |
          | GRADIENT NORM               0.180432607035 Eh/α |
          | HOMO-LUMO GAP               0.891563252766 eV   |
           -------------------------------------------------

------------------------------------------------------------------------
 * finished run on 2026/01/19 at 00:00:57.232     
------------------------------------------------------------------------
 total:
 * wall-time:     0 d,  0 h,  0 min,  0.419 sec
 *  cpu-time:     0 d,  0 h,  0 min,  0.126 sec
 * ratio c/w:     0.301 speedup
 SCF:
 * wall-time:     0 d,  0 h,  0 min,  0.064 sec
 *  cpu-time:     0 d,  0 h,  0 min,  0.064 sec
 * ratio c/w:     0.997 speedup


-------------------------   --------------------
FINAL SINGLE POINT ENERGY         0.000000000000
-------------------------   --------------------

------------------------------------------------------------------------------
                         ORCA GEOMETRY RELAXATION STEP
------------------------------------------------------------------------------

Reading the OPT-File                    .... done
Getting information on internals        .... done
Copying old internal coords+grads       .... done
Making the new internal coordinates     .... (new redundants).... done
Validating the new internal coordinates .... (new redundants).... done
Calculating the B-matrix                .... done
Calculating the G,G- and P matrices     .... done
Transforming gradient to internals      .... done
Projecting the internal gradient        .... done
Number of atoms                         ....  28
Number of internal coordinates          .... 156
Current Energy                          ....     0.000000000 Eh
Current gradient norm                   ....     0.180432607 Eh/bohr
Maximum allowed component of the step   ....  0.300
Current trust radius                    ....  0.300
Evaluating the initial hessian          ....  (Almloef) done
Projecting the Hessian                  .... done
Forming the augmented Hessian           .... done
Diagonalizing the augmented Hessian     .... done
Last element of RFO vector              ....  0.970348924
Lowest eigenvalues of augmented Hessian:
 -0.036279105  0.015941475  0.022975891  0.023291227  0.023352835
Length of the computed step             ....  0.249094345
The final length of the internal step   ....  0.249094345
Converting the step to cartesian space:
 Initial RMS(Int)=    0.0199435088
Transforming coordinates:
 Iter   0:  RMS(Cart)=    0.0685268970 RMS(Int)=    1.0062136492
 Iter   1:  RMS(Cart)=    0.0010689515 RMS(Int)=    0.0004106253
 Iter   2:  RMS(Cart)=    0.0000229641 RMS(Int)=    0.0000105680
 Iter   3:  RMS(Cart)=    0.0000007001 RMS(Int)=    0.0000002681
 Iter   4:  RMS(Cart)=    0.0000000202 RMS(Int)=    0.0000000110
done
Storing new coordinates                 .... done

                                .--------------------.
          ----------------------|Geometry convergence|-------------------------
          Item                value                   Tolerance       Converged
          ---------------------------------------------------------------------
          RMS gradient        0.0119000406            0.0001000000      NO
          MAX gradient        0.0553488921            0.0003000000      NO
          RMS step            0.0199435088            0.0020000000      NO
          MAX step            0.0855564524            0.0040000000      NO
          ........................................................
          Max(Bonds)      0.0453      Max(Angles)    2.53
          Max(Dihed)        0.67      Max(Improp)    0.00
          ---------------------------------------------------------------------

The optimization has not yet converged - more geometry cycles are needed


    ---------------------------------------------------------------------------
                         Redundant Internal Coordinates
                            (Angstroem and degrees)

        Definition                    Value    dE/dq     Step     New-Value
    ----------------------------------------------------------------------------
     1. B(N   1,C   0)                1.4603  0.019752 -0.0223    1.4379   
     2. B(C   2,N   1)                1.3590 -0.028166  0.0208    1.3799   
     3. B(C   3,C   2)                1.3971  0.008927 -0.0070    1.3901   
     4. B(C   4,C   3)                1.4078  0.020116 -0.0178    1.3901   
     5. B(C   5,C   4)                1.4134  0.016190 -0.0150    1.3984   
     6. B(C   6,C   5)                1.4064  0.021576 -0.0186    1.3878   
     7. B(C   7,C   2)                1.3859 -0.024194  0.0198    1.4057   
     8. B(C   7,C   6)                1.3916  0.001640 -0.0007    1.3909   
     9. B(C   8,C   7)                1.3723 -0.053222  0.0415    1.4139   
    10. B(N   9,C   8)                1.3541  0.039641 -0.0305    1.3236   
    11. B(C  10,N   9)                1.3673  0.020823 -0.0173    1.3500   
    12. B(C  11,C  10)                1.3958  0.003211 -0.0017    1.3940   
    13. B(C  12,C  11)                1.3981  0.024560 -0.0199    1.3782   
    14. B(Br 13,C  12)                1.9097  0.004050 -0.0062    1.9036   
    15. B(C  14,C  12)                1.4002 -0.000920  0.0002    1.4004   
    16. B(N  15,C  14)                1.3606  0.055349 -0.0453    1.3153   
    17. B(C  16,N  15)                1.3587  0.023591 -0.0192    1.3395   
    18. B(C  16,C  10)                1.4285 -0.012290  0.0110    1.4394   
    19. B(N  17,C  16)                1.3671  0.030899 -0.0259    1.3412   
    20. B(C  18,N  17)                1.3562  0.039975 -0.0313    1.3249   
    21. B(C  18,C   8)                1.3704 -0.054978  0.0428    1.4132   
    22. B(C  18,N   1)                1.3521 -0.006230  0.0040    1.3561   
    23. B(H  19,C   0)                1.1102  0.011955 -0.0171    1.0931   
    24. B(H  20,C   0)                1.1100  0.010922 -0.0156    1.0944   
    25. B(H  21,C   0)                1.1105  0.014585 -0.0208    1.0896   
    26. B(H  22,C   3)                1.0820  0.002692 -0.0035    1.0785   
    27. B(H  23,C   4)                1.0822  0.003072 -0.0040    1.0782   
    28. B(H  24,C   5)                1.0822  0.002951 -0.0038    1.0784   
    29. B(H  25,C   6)                1.0824  0.004020 -0.0052    1.0771   
    30. B(H  26,C  11)                1.0830  0.002071 -0.0027    1.0803   
    31. B(H  27,C  14)                1.0818  0.003327 -0.0043    1.0775   
    32. A(H  20,C   0,H  21)          109.05 -0.001919    0.23    109.28   
    33. A(H  19,C   0,H  21)          108.38 -0.003822    0.62    109.00   
    34. A(N   1,C   0,H  20)          109.55 -0.002534    0.40    109.95   
    35. A(N   1,C   0,H  19)          109.85  0.000326   -0.03    109.82   
    36. A(N   1,C   0,H  21)          110.61  0.007829   -1.32    109.29   
    37. A(H  19,C   0,H  20)          109.37  0.000048    0.12    109.48   
    38. A(C   0,N   1,C  18)          127.58  0.011158   -1.25    126.33   
    39. A(C   2,N   1,C  18)          104.62 -0.018453    2.01    106.63   
    40. A(C   0,N   1,C   2)          127.69  0.007285   -0.75    126.94   
    41. A(C   3,C   2,C   7)          120.84  0.004201   -0.26    120.58   
    42. A(N   1,C   2,C   7)          111.31  0.001988   -0.50    110.81   
    43. A(N   1,C   2,C   3)          127.85 -0.006191    0.76    128.61   
    44. A(C   2,C   3,C   4)          118.00  0.000709   -0.15    117.85   
    45. A(C   4,C   3,H  22)          120.61 -0.000003    0.02    120.63   
    46. A(C   2,C   3,H  22)          121.39 -0.000706    0.13    121.52   
    47. A(C   3,C   4,C   5)          120.67 -0.007700    0.76    121.44   
    48. A(C   3,C   4,H  23)          119.65  0.003965   -0.40    119.25   
    49. A(C   5,C   4,H  23)          119.68  0.003734   -0.37    119.31   
    50. A(C   4,C   5,C   6)          120.58 -0.004645    0.41    121.00   
    51. A(C   4,C   5,H  24)          119.73  0.003021   -0.31    119.42   
    52. A(C   6,C   5,H  24)          119.69  0.001624   -0.10    119.58   
    53. A(C   5,C   6,H  25)          121.14 -0.000984    0.13    121.27   
    54. A(C   7,C   6,H  25)          121.32  0.001787   -0.28    121.04   
    55. A(C   5,C   6,C   7)          117.54 -0.000803    0.15    117.69   
    56. A(C   6,C   7,C   8)          131.99 -0.010866    1.07    133.06   
    57. A(C   2,C   7,C   8)          105.64  0.002625   -0.15    105.49   
    58. A(C   2,C   7,C   6)          122.37  0.008238   -0.92    121.44   
    59. A(N   9,C   8,C  18)          122.33  0.000200    0.00    122.33   
    60. A(C   7,C   8,C  18)          106.94  0.005106   -0.30    106.64   
    61. A(C   7,C   8,N   9)          130.72 -0.005310    0.30    131.03   
    62. A(C   8,N   9,C  10)          117.77  0.018912   -2.17    115.60   
    63. A(N   9,C  10,C  11)          120.79  0.006718   -0.90    119.89   
    64. A(C  11,C  10,C  16)          119.02  0.007851   -0.73    118.29   
    65. A(N   9,C  10,C  16)          120.20 -0.014570    1.62    121.82   
    66. A(C  10,C  11,C  12)          119.64  0.011128   -1.25    118.40   
    67. A(C  12,C  11,H  26)          120.11 -0.007627    0.93    121.04   
    68. A(C  10,C  11,H  26)          120.24 -0.003500    0.32    120.56   
    69. A(Br 13,C  12,C  14)          120.19  0.002173   -0.26    119.93   
    70. A(C  11,C  12,C  14)          119.64 -0.004041    0.47    120.11   
    71. A(C  11,C  12,Br 13)          120.17  0.001867   -0.22    119.96   
    72. A(C  12,C  14,H  27)          120.11  0.000201    0.21    120.32   
    73. A(N  15,C  14,H  27)          119.50  0.013771   -1.79    117.71   
    74. A(C  12,C  14,N  15)          120.38 -0.013972    1.58    121.97   
    75. A(C  14,N  15,C  16)          121.56  0.008069   -1.29    120.27   
    76. A(N  15,C  16,N  17)          120.15  0.020009   -2.42    117.74   
    77. A(C  10,C  16,N  17)          120.09 -0.010974    1.21    121.30   
    78. A(C  10,C  16,N  15)          119.76 -0.009035    1.20    120.96   
    79. A(C  16,N  17,C  18)          118.20  0.020595   -2.53    115.67   
    80. A(N   1,C  18,C   8)          111.49  0.008736   -1.06    110.43   
    81. A(C   8,C  18,N  17)          121.42 -0.014163    1.86    123.28   
    82. A(N   1,C  18,N  17)          127.08  0.005424   -0.80    126.29   
    83. D(C   2,N   1,C   0,H  20)    -70.40  0.000956   -0.16    -70.56   
    84. D(C  18,N   1,C   0,H  19)   -134.82 -0.001304    0.67   -134.15   
    85. D(C  18,N   1,C   0,H  21)    -15.22 -0.000911    0.58    -14.63   
    86. D(C   2,N   1,C   0,H  21)    169.36  0.000029    0.13    169.49   
    87. D(C  18,N   1,C   0,H  20)    105.03  0.000016    0.29    105.32   
    88. D(C   2,N   1,C   0,H  19)     49.76 -0.000364    0.22     49.97   
    89. D(C   7,C   2,N   1,C   0)    176.96 -0.000112    0.29    177.25   
    90. D(C   3,C   2,N   1,C   0)     -2.33  0.000095    0.11     -2.22   
    91. D(C   3,C   2,N   1,C  18)   -178.58 -0.000014   -0.16   -178.74   
    92. D(C   7,C   2,N   1,C  18)      0.71 -0.000221    0.02      0.73   
    93. D(H  22,C   3,C   2,C   7)   -179.58  0.000030   -0.01   -179.60   
    94. D(C   4,C   3,C   2,C   7)      0.34  0.000026   -0.03      0.30   
    95. D(C   4,C   3,C   2,N   1)    179.57 -0.000221    0.16    179.72   
    96. D(H  22,C   3,C   2,N   1)     -0.36 -0.000218    0.18     -0.18   
    97. D(C   5,C   4,C   3,C   2)     -0.20 -0.000010    0.03     -0.18   
    98. D(H  23,C   4,C   3,C   2)    179.92 -0.000015    0.04    179.95   
    99. D(C   5,C   4,C   3,H  22)    179.72 -0.000014    0.01    179.73   
   100. D(H  23,C   4,C   3,H  22)     -0.16 -0.000019    0.02     -0.14   
   101. D(H  24,C   5,C   4,H  23)      0.00  0.000023   -0.02     -0.02   
   102. D(H  24,C   5,C   4,C   3)   -179.88  0.000017   -0.02   -179.89   
   103. D(C   6,C   5,C   4,H  23)    179.81  0.000006    0.01    179.82   
   104. D(C   6,C   5,C   4,C   3)     -0.07  0.000001    0.02     -0.05   
   105. D(H  25,C   6,C   5,H  24)      0.19  0.000051   -0.06      0.13   
   106. D(H  25,C   6,C   5,C   4)   -179.61  0.000065   -0.10   -179.71   
   107. D(C   7,C   6,C   5,H  24)   -179.98  0.000041   -0.03   -180.01   
   108. D(C   7,C   6,C   5,C   4)      0.22  0.000054   -0.06      0.15   
   109. D(C   8,C   7,C   2,C   3)    178.91 -0.000252    0.16    179.07   
   110. D(C   8,C   7,C   2,N   1)     -0.43  0.000022   -0.01     -0.45   
   111. D(C   6,C   7,C   2,C   3)     -0.20  0.000035   -0.01     -0.21   
   112. D(C   2,C   7,C   6,C   5)     -0.09 -0.000085    0.06     -0.03   
   113. D(C   6,C   7,C   2,N   1)   -179.54  0.000309   -0.18   -179.73   
   114. D(C   8,C   7,C   6,H  25)      0.89  0.000060   -0.10      0.79   
   115. D(C   8,C   7,C   6,C   5)   -178.93  0.000075   -0.14   -179.07   
   116. D(C   2,C   7,C   6,H  25)    179.74 -0.000100    0.09    179.84   
   117. D(C  18,C   8,C   7,C   6)    178.96 -0.000116    0.19    179.15   
   118. D(N   9,C   8,C   7,C   6)      0.24  0.000113   -0.08      0.16   
   119. D(C  18,C   8,C   7,C   2)     -0.03 -0.000055    0.03     -0.00   
   120. D(N   9,C   8,C   7,C   2)   -178.75  0.000175   -0.25   -178.99   
   121. D(C  10,N   9,C   8,C  18)      0.26  0.000002    0.01      0.28   
   122. D(C  10,N   9,C   8,C   7)    178.81 -0.000222    0.32    179.14   
   123. D(C  16,C  10,N   9,C   8)     -0.29 -0.000004    0.04     -0.26   
   124. D(C  11,C  10,N   9,C   8)    179.85 -0.000034    0.03    179.89   
   125. D(H  26,C  11,C  10,C  16)   -179.96  0.000045   -0.04   -180.00   
   126. D(H  26,C  11,C  10,N   9)     -0.10  0.000042   -0.03     -0.14   
   127. D(C  12,C  11,C  10,C  16)      0.04  0.000018   -0.01      0.02   
   128. D(C  12,C  11,C  10,N   9)    179.89  0.000015   -0.01    179.88   
   129. D(C  14,C  12,C  11,H  26)    179.96 -0.000045    0.05    180.01   
   130. D(C  14,C  12,C  11,C  10)     -0.03 -0.000018    0.02     -0.01   
   131. D(Br 13,C  12,C  11,H  26)     -0.02  0.000001    0.00     -0.02   
   132. D(Br 13,C  12,C  11,C  10)    179.99  0.000027   -0.03    179.96   
   133. D(H  27,C  14,C  12,Br 13)     -0.00 -0.000003    0.00      0.00   
   134. D(H  27,C  14,C  12,C  11)   -179.98  0.000043   -0.04   -180.02   
   135. D(N  15,C  14,C  12,Br 13)    179.98 -0.000038    0.04    180.02   
   136. D(N  15,C  14,C  12,C  11)      0.00  0.000008   -0.01     -0.01   
   137. D(C  16,N  15,C  14,H  27)   -179.99 -0.000029    0.03   -179.96   
   138. D(C  16,N  15,C  14,C  12)      0.03  0.000007   -0.00      0.02   
   139. D(N  17,C  16,N  15,C  14)   -179.95 -0.000050    0.06   -179.89   
   140. D(C  10,C  16,N  15,C  14)     -0.02 -0.000014    0.01     -0.01   
   141. D(N  17,C  16,C  10,C  11)    179.91  0.000062   -0.05    179.86   
   142. D(N  17,C  16,C  10,N   9)      0.06  0.000033   -0.06      0.00   
   143. D(N  15,C  16,C  10,C  11)     -0.01  0.000002   -0.00     -0.01   
   144. D(N  15,C  16,C  10,N   9)   -179.87 -0.000027   -0.01   -179.87   
   145. D(C  18,N  17,C  16,C  10)      0.21 -0.000044    0.02      0.24   
   146. D(C  18,N  17,C  16,N  15)   -179.86 -0.000006   -0.03   -179.89   
   147. D(C   8,C  18,N  17,C  16)     -0.25  0.000014    0.03     -0.22   
   148. D(N   1,C  18,N  17,C  16)   -179.46  0.000356   -0.29   -179.75   
   149. D(N  17,C  18,C   8,N   9)      0.01  0.000011   -0.05     -0.04   
   150. D(N  17,C  18,C   8,C   7)   -178.84  0.000310   -0.30   -179.14   
   151. D(N   1,C  18,C   8,N   9)    179.34 -0.000274    0.22    179.56   
   152. D(N   1,C  18,C   8,C   7)      0.48  0.000026   -0.03      0.45   
   153. D(N  17,C  18,N   1,C   2)    178.55 -0.000361    0.32    178.87   
   154. D(N  17,C  18,N   1,C   0)      2.29 -0.000276    0.02      2.31   
   155. D(C   8,C  18,N   1,C   2)     -0.73  0.000105    0.01     -0.72   
   156. D(C   8,C  18,N   1,C   0)   -176.99  0.000189   -0.29   -177.28   
    ----------------------------------------------------------------------------

         *************************************************************
         *                GEOMETRY OPTIMIZATION CYCLE   2            *
         *************************************************************
      -----------------------------------------------------------      
     |                   =====================                   |     
     |                           x T B                           |     
     |                   =====================                   |     
     |                         S. Grimme                         |     
     |          Mulliken Center for Theoretical Chemistry        |     
     |                    University of Bonn                     |     
      -----------------------------------------------------------      

   * xtb version 6.2.3 (830e466) compiled by 'ehlert@majestix' on 2020-03-16

   xtb is free software: you can redistribute it and/or modify it under
   the terms of the GNU Lesser General Public License as published by
   the Free Software Foundation, either version 3 of the License, or
   (at your option) any later version.
   
   xtb is distributed in the hope that it will be useful,
   but WITHOUT ANY WARRANTY; without even the implied warranty of
   MERCHANTABILITY or FITNESS FOR A PARTICULAR PURPOSE.  See the
   GNU Lesser General Public License for more details.
   
   Cite this work as:
   * S. Grimme, C. Bannwarth, P. Shushkov, J. Chem. Theory Comput., 2017,
     13, 1989-2009. DOI: 10.1021/acs.jctc.7b00118
   * C. Bannwarth, S. Ehlert and S. Grimme., J. Chem. Theory Comput., 2019,
     15, 1652-1671. DOI: 10.1021/acs.jctc.8b01176
   * P. Pracht, E. Caldeweyher, S. Ehlert, S. Grimme, ChemRxiv, 2019, preprint.
     DOI: 10.26434/chemrxiv.8326202.v1
   
   for DFT-D4:
   * E. Caldeweyher, C. Bannwarth and S. Grimme, J. Chem. Phys., 2017,
     147, 034112. DOI: 10.1063/1.4993215
   * E. Caldeweyher, S. Ehlert, A. Hansen, H. Neugebauer, S. Spicher,
     C. Bannwarth and S. Grimme, J. Chem. Phys., 2019, 150, 154122.
     DOI: 10.1063/1.5090222
   
   for sTDA-xTB:
   * S. Grimme and C. Bannwarth, J. Chem. Phys., 2016, 145, 054103.
     DOI: 10.1063/1.4959605
   
   in the mass-spec context:
   * V. Asgeirsson, C. Bauer and S. Grimme, Chem. Sci., 2017, 8, 4879.
     DOI: 10.1039/c7sc00601b
   
   for metadynamics refer to:
   * S. Grimme, J. Chem. Theory Comput., 2019, 155, 2847-2862
     DOI: 10.1021/acs.jctc.9b00143
   
   with help from (in alphabetical order)
   C. Bannwarth, F. Bohle, G. Brandenburg, E. Caldeweyher, M. Checinski,
   S. Dohm, S. Ehlert, S. Ehrlich, F. März, H. Neugebauer, J. Pisarek,
   P. Pracht, P. Shushkov, and S. Spicher.
   
 * started run on 2026/01/19 at 00:00:58.663     

           -------------------------------------------------
          |                Calculation Setup                |
           -------------------------------------------------

          program call               : /appl/orca_4.2.1/orca_4_2_1_linux_x86-64_openmpi314/xtb pre_opt_XTB.xyz --grad -c 0 -u 0 -P 1 --namespace pre_opt
          hostname                   : cnode11
          calculation namespace      : pre_opt
          coordinate file            : pre_opt_XTB.xyz
          omp threads                :                     1
          number of atoms            :                    28
          number of electrons        :                    92
          charge                     :                     0
          spin                       :                   0.0
          first test random number   :      0.46899616106631

########################################################################
[WARNING] Please study the warnings concerning your input carefully
-2- prog_main: XTBPATH is not set, using XTBHOME instead
-1- prog_main: XTBHOME is not set, using HOME instead
########################################################################
           ------------------------------------------------- 
          |                 G F N 2 - x T B                 |
          | Geometry, Frequencies, Noncovalent interactions |
          |            JCTC 2019 parametrisation            |
           ------------------------------------------------- 
             k(s)              :                1.8500
             k(p)              :                2.2300
             k(d)              :                2.2300
             k(f)              :                2.0000
             kEN (H0ij)        :               -2.0000
             D4 a1             :                0.5200
             D4 a2             :                5.0000
             D4 s6             :                1.0000
             D4 s8             :                2.7000
             D4 s9             :                5.0000
             alphaj            :                2.0000

  Z AO/shell   Hii/eV     exponent
  1     Wed Apr 25 08:07:45 CEST 2018   EN: 2.200 GM2: 0.406  GM3: 0.0800  RAES: 1.40
     1s    -10.707211    1.230000
  6     Wed Apr 25 08:07:45 CEST 2018   EN: 2.550 GM2: 0.538  GM3: 0.1500  RAES: 3.00
     2s    -13.970922    2.096432
     2p    -10.063292    1.800000
  7     Wed Apr 25 08:07:45 CEST 2018   EN: 3.040 GM2: 0.461  GM3:-0.0640  RAES: 1.90
     2s    -16.686243    2.339881
     2p    -12.523956    2.014332
 35     Tue Apr 24 12:21:41 CEST 2018   EN: 2.960 GM2: 0.261  GM3: 0.1300  RAES: 4.00
     4s    -23.583718    2.077587
     4p    -12.588824    2.263120
     4d      0.047980    1.845038

           ------------------------------------------------- 
          |        Self-Consistent Charge Iterations        |
           ------------------------------------------------- 

          ...................................................
          :                      SETUP                      :
          :.................................................:
          :  # basis functions                  91          :
          :  # atomic orbitals                  90          :
          :  # shells                           48          :
          :  # electrons                        92          :
          :  max. iterations                   250          :
          :  Hamiltonian                  GFN2-xTB          :
          :  restarted?                      false          :
          :  GBSA solvation                  false          :
          :  PC potential                    false          :
          :  electronic temp.          300.0000000     K    :
          :  accuracy                    1.0000000          :
          :  -> integral cutoff          0.2500000E+02      :
          :  -> integral neglect         0.1000000E-07      :
          :  -> SCF convergence          0.1000000E-05 Eh   :
          :  -> wf. convergence          0.1000000E-03 e    :
          :  Broyden damping             0.4000000          :
          ...................................................

 iter      E             dE          RMSdq      gap      omega  full diag
   1    -51.0449849 -0.510450E+02  0.496E+00    1.56       0.0  T
   2    -51.1190839 -0.740989E-01  0.327E+00    1.36       1.0  T
   3    -51.1143661  0.471773E-02  0.159E+00    1.26       1.0  T
   4    -51.1367460 -0.223799E-01  0.539E-01    1.11       1.0  T
   5    -51.1438622 -0.711623E-02  0.289E-01    1.11       1.0  T
   6    -51.1444503 -0.588072E-03  0.152E-01    1.12       1.0  T
   7    -51.1445294 -0.790790E-04  0.992E-02    1.11       1.0  T
   8    -51.1445549 -0.254830E-04  0.774E-02    1.11       1.0  T
   9    -51.1445833 -0.284627E-04  0.385E-02    1.11       1.0  T
  10    -51.1445967 -0.134002E-04  0.965E-03    1.11       2.0  T
  11    -51.1445970 -0.289611E-06  0.487E-03    1.11       3.9  T
  12    -51.1445972 -0.158520E-06  0.158E-03    1.11      11.9  T
  13    -51.1445972 -0.498545E-07  0.496E-04    1.11      38.1  T
  14    -51.1445972 -0.116720E-08  0.239E-04    1.11      79.2  T

   *** convergence criteria satisfied after 14 iterations ***

         #    Occupation            Energy/Eh            Energy/eV
      -------------------------------------------------------------
         1        2.0000           -0.8413067             -22.8931
       ...           ...                  ...                  ...
        40        2.0000           -0.4302693             -11.7082
        41        2.0000           -0.4194011             -11.4125
        42        2.0000           -0.4152020             -11.2982
        43        2.0000           -0.4085624             -11.1175
        44        2.0000           -0.4000525             -10.8860
        45        2.0000           -0.3921900             -10.6720
        46        2.0000           -0.3593311              -9.7779 (HOMO)
        47                         -0.3184412              -8.6652 (LUMO)
        48                         -0.2651283              -7.2145
        49                         -0.2462543              -6.7009
        50                         -0.2361471              -6.4259
        51                         -0.2186240              -5.9491
       ...                                ...                  ...
        90                          0.7198582              19.5883
      -------------------------------------------------------------
                  HL-Gap            0.0408899 Eh            1.1127 eV
             Fermi-level           -0.3388862 Eh           -9.2216 eV

 SCC (total)                   0 d,  0 h,  0 min,  0.062 sec
 SCC setup                      ...        0 min,  0.000 sec (  0.601%)
 Dispersion                     ...        0 min,  0.000 sec (  0.710%)
 integral evaluation            ...        0 min,  0.022 sec ( 35.678%)
 zeroth order Hamiltonian       ...        0 min,  0.000 sec (  0.491%)
 iterations                     ...        0 min,  0.021 sec ( 33.666%)
 molecular gradient             ...        0 min,  0.018 sec ( 28.590%)
 printout                       ...        0 min,  0.000 sec (  0.196%)

         :::::::::::::::::::::::::::::::::::::::::::::::::::::
         ::                     SUMMARY                     ::
         :::::::::::::::::::::::::::::::::::::::::::::::::::::
         :: total energy             -50.381970666765 Eh    ::
         :: gradient norm              0.065131228044 Eh/a0 ::
         :: HOMO-LUMO gap              1.112671431078 eV    ::
         ::.................................................::
         :: SCC energy               -51.144597220302 Eh    ::
         :: -> isotropic ES            0.031686308221 Eh    ::
         :: -> anisotropic ES          0.002873123704 Eh    ::
         :: -> anisotropic XC          0.034200482485 Eh    ::
         :: -> dispersion             -0.034681668588 Eh    ::
         :: repulsion energy           0.762875047300 Eh    ::
         :: add. restraining           0.000000000000 Eh    ::
         :::::::::::::::::::::::::::::::::::::::::::::::::::::

           -------------------------------------------------
          |                Property Printout                |
           -------------------------------------------------

    * Orbital Energies and Occupations

         #    Occupation            Energy/Eh            Energy/eV
      -------------------------------------------------------------
         1        2.0000           -0.8413067             -22.8931
       ...           ...                  ...                  ...
        34        2.0000           -0.4696063             -12.7786
        35        2.0000           -0.4690470             -12.7634
        36        2.0000           -0.4559514             -12.4071
        37        2.0000           -0.4490288             -12.2187
        38        2.0000           -0.4437139             -12.0741
        39        2.0000           -0.4424400             -12.0394
        40        2.0000           -0.4302693             -11.7082
        41        2.0000           -0.4194011             -11.4125
        42        2.0000           -0.4152020             -11.2982
        43        2.0000           -0.4085624             -11.1175
        44        2.0000           -0.4000525             -10.8860
        45        2.0000           -0.3921900             -10.6720
        46        2.0000           -0.3593311              -9.7779 (HOMO)
        47                         -0.3184412              -8.6652 (LUMO)
        48                         -0.2651283              -7.2145
        49                         -0.2462543              -6.7009
        50                         -0.2361471              -6.4259
        51                         -0.2186240              -5.9491
        52                         -0.2109938              -5.7414
        53                         -0.1686475              -4.5891
        54                         -0.1090003              -2.9660
        55                         -0.0841673              -2.2903
        56                         -0.0153163              -0.4168
        57                          0.0295476               0.8040
       ...                                ...                  ...
        90                          0.7198582              19.5883
      -------------------------------------------------------------
                  HL-Gap            0.0408899 Eh            1.1127 eV
             Fermi-level           -0.3388862 Eh           -9.2216 eV

     #   Z        covCN         q      C6AA      α(0)
     1   6 C      3.688    -0.051    21.692     6.667
     2   7 N      2.792    -0.040    22.014     6.969
     3   6 C      3.148     0.050    26.614     8.439
     4   6 C      2.910    -0.049    29.204     8.861
     5   6 C      2.919    -0.025    28.634     8.775
     6   6 C      2.919    -0.037    28.919     8.819
     7   6 C      2.909    -0.021    28.537     8.760
     8   6 C      3.079    -0.021    28.441     8.743
     9   6 C      3.086     0.075    26.237     8.396
    10   7 N      1.840    -0.236    27.028     7.705
    11   6 C      2.980     0.066    26.526     8.448
    12   6 C      2.995    -0.028    28.690     8.786
    13   6 C      2.908     0.064    26.557     8.450
    14  35 Br     1.055    -0.154   189.300    22.184
    15   6 C      2.949     0.060    26.656     8.468
    16   7 N      1.846    -0.221    26.665     7.653
    17   6 C      2.952     0.159    24.565     8.129
    18   7 N      1.844    -0.259    27.580     7.783
    19   6 C      3.122     0.135    24.888     8.170
    20   1 H      0.924     0.063     2.168     2.303
    21   1 H      0.924     0.061     2.186     2.312
    22   1 H      0.925     0.087     1.905     2.158
    23   1 H      0.926     0.040     2.452     2.449
    24   1 H      0.926     0.044     2.396     2.421
    25   1 H      0.926     0.043     2.413     2.429
    26   1 H      0.926     0.057     2.239     2.340
    27   1 H      0.926     0.072     2.063     2.246
    28   1 H      0.926     0.067     2.117     2.276

 Mol. C6AA /au·bohr⁶  :      14364.962116
 Mol. C8AA /au·bohr⁸  :     410541.826082
 Mol. α(0) /au        :        191.137540


Wiberg/Mayer (AO) data.
largest (>0.10) Wiberg bond orders for each atom
          total WBO             WBO to atom ...
     1  C   3.961        N    2 0.997    H   22 0.977    H   20 0.976    H   21 0.973
     2  N   3.572        C   19 1.201    C    3 1.117    C    1 0.997
     3  C   3.950        C    4 1.367    C    8 1.264    N    2 1.117
     4  C   3.983        C    5 1.456    C    3 1.367    H   23 0.968    C    7 0.105
     5  C   3.970        C    4 1.456    C    6 1.404    H   24 0.971
     6  C   3.982        C    7 1.469    C    5 1.404    H   25 0.971
     7  C   3.978        C    6 1.469    C    8 1.359    H   26 0.968    C    4 0.105
     8  C   3.982        C    7 1.359    C    3 1.264    C    9 1.147
     9  C   3.981        N   10 1.464    C    8 1.147    C   19 1.131
    10  N   3.055        C    9 1.464    C   11 1.298
    11  C   3.974        N   10 1.298    C   12 1.296    C   17 1.168
    12  C   3.973        C   13 1.489    C   11 1.296    H   27 0.962    N   16 0.100
    13  C   3.924        C   12 1.489    C   15 1.301    Br  14 0.984
    14  Br  1.124        C   13 0.984
    15  C   3.962        N   16 1.528    C   13 1.301    H   28 0.960
    16  N   3.082        C   15 1.528    C   17 1.291    C   12 0.100
    17  C   3.967        N   18 1.308    N   16 1.291    C   11 1.168
    18  N   3.045        C   19 1.416    C   17 1.308
    19  C   3.962        N   18 1.416    N    2 1.201    C    9 1.131
    20  H   0.995        C    1 0.976
    21  H   0.993        C    1 0.973
    22  H   0.992        C    1 0.977
    23  H   0.998        C    4 0.968
    24  H   0.998        C    5 0.971
    25  H   0.998        C    6 0.971
    26  H   0.996        C    7 0.968
    27  H   0.995        C   12 0.962
    28  H   0.995        C   15 0.960

molecular dipole:
                 x           y           z       tot (Debye)
 q only:       -2.219       0.340       0.039
   full:       -2.628       0.270       0.028       6.714
molecular quadrupole (traceless):
                xx          xy          yy          xz          yz          zz
 q only:       -7.484      -0.451       6.905      -1.216       0.931       0.578
  q+dip:      -12.885       1.370       8.659      -1.052       0.686       4.226
   full:      -14.570       0.718       5.053      -1.146      -0.339       9.518


           -------------------------------------------------
          | TOTAL ENERGY              -50.381970666765 Eh   |
          | GRADIENT NORM               0.065131228044 Eh/α |
          | HOMO-LUMO GAP               1.112671431078 eV   |
           -------------------------------------------------

------------------------------------------------------------------------
 * finished run on 2026/01/19 at 00:00:58.936     
------------------------------------------------------------------------
 total:
 * wall-time:     0 d,  0 h,  0 min,  0.273 sec
 *  cpu-time:     0 d,  0 h,  0 min,  0.096 sec
 * ratio c/w:     0.352 speedup
 SCF:
 * wall-time:     0 d,  0 h,  0 min,  0.062 sec
 *  cpu-time:     0 d,  0 h,  0 min,  0.062 sec
 * ratio c/w:     1.000 speedup


-------------------------   --------------------
FINAL SINGLE POINT ENERGY         0.000000000000
-------------------------   --------------------

------------------------------------------------------------------------------
                         ORCA GEOMETRY RELAXATION STEP
------------------------------------------------------------------------------

Reading the OPT-File                    .... done
Getting information on internals        .... done
Copying old internal coords+grads       .... done
Making the new internal coordinates     .... (new redundants).... done
Validating the new internal coordinates .... (new redundants).... done
Calculating the B-matrix                .... done
Calculating the G,G- and P matrices     .... done
Transforming gradient to internals      .... done
Projecting the internal gradient        .... done
Number of atoms                         ....  28
Number of internal coordinates          .... 156
Current Energy                          ....     0.000000000 Eh
Current gradient norm                   ....     0.065131228 Eh/bohr
Maximum allowed component of the step   ....  0.300
Current trust radius                    ....  0.300
Updating the Hessian (BFGS)             .... done
Forming the augmented Hessian           .... done
Diagonalizing the augmented Hessian     .... done
Last element of RFO vector              ....  0.993064733
Lowest eigenvalues of augmented Hessian:
 -0.004770919  0.015954928  0.022975892  0.023291215  0.023352830
Length of the computed step             ....  0.118389923
The final length of the internal step   ....  0.118389923
Converting the step to cartesian space:
 Initial RMS(Int)=    0.0094787799
Transforming coordinates:
 Iter   0:  RMS(Cart)=    0.0304144342 RMS(Int)=    1.0053869638
 Iter   1:  RMS(Cart)=    0.0003031434 RMS(Int)=    0.0001465923
 Iter   2:  RMS(Cart)=    0.0000045886 RMS(Int)=    0.0000020956
 Iter   3:  RMS(Cart)=    0.0000001289 RMS(Int)=    0.0000000923
 Iter   4:  RMS(Cart)=    0.0000000038 RMS(Int)=    0.0000000019
done
Storing new coordinates                 .... done

                                .--------------------.
          ----------------------|Geometry convergence|-------------------------
          Item                value                   Tolerance       Converged
          ---------------------------------------------------------------------
          Energy change       0.0000000000            0.0000050000      YES
          RMS gradient        0.0035441786            0.0001000000      NO
          MAX gradient        0.0202842240            0.0003000000      NO
          RMS step            0.0094787799            0.0020000000      NO
          MAX step            0.0435327525            0.0040000000      NO
          ........................................................
          Max(Bonds)      0.0230      Max(Angles)    1.29
          Max(Dihed)        1.24      Max(Improp)    0.00
          ---------------------------------------------------------------------

The optimization has not yet converged - more geometry cycles are needed


    ---------------------------------------------------------------------------
                         Redundant Internal Coordinates
                            (Angstroem and degrees)

        Definition                    Value    dE/dq     Step     New-Value
    ----------------------------------------------------------------------------
     1. B(N   1,C   0)                1.4379  0.002686 -0.0045    1.4334   
     2. B(C   2,N   1)                1.3799 -0.005684  0.0058    1.3857   
     3. B(C   3,C   2)                1.3901  0.003465 -0.0041    1.3860   
     4. B(C   4,C   3)                1.3901  0.005257 -0.0068    1.3832   
     5. B(C   5,C   4)                1.3985  0.004659 -0.0063    1.3922   
     6. B(C   6,C   5)                1.3878  0.005261 -0.0067    1.3811   
     7. B(C   7,C   2)                1.4057 -0.007295  0.0086    1.4143   
     8. B(C   7,C   6)                1.3909  0.002112 -0.0022    1.3887   
     9. B(C   8,C   7)                1.4139 -0.015989  0.0185    1.4324   
    10. B(N   9,C   8)                1.3236  0.013754 -0.0157    1.3079   
    11. B(C  10,N   9)                1.3500  0.000805 -0.0013    1.3488   
    12. B(C  11,C  10)                1.3940 -0.006485  0.0080    1.4020   
    13. B(C  12,C  11)                1.3783  0.005763 -0.0069    1.3713   
    14. B(Br 13,C  12)                1.9036  0.000967 -0.0022    1.9014   
    15. B(C  14,C  12)                1.4005 -0.003826  0.0042    1.4047   
    16. B(N  15,C  14)                1.3153  0.015068 -0.0183    1.2971   
    17. B(C  16,N  15)                1.3395 -0.000382  0.0001    1.3396   
    18. B(C  16,C  10)                1.4394 -0.002560  0.0036    1.4429   
    19. B(N  17,C  16)                1.3411  0.000512 -0.0010    1.3401   
    20. B(C  18,N  17)                1.3248  0.012332 -0.0142    1.3106   
    21. B(C  18,C   8)                1.4132 -0.020284  0.0230    1.4363   
    22. B(C  18,N   1)                1.3561 -0.000042 -0.0003    1.3558   
    23. B(H  19,C   0)                1.0931  0.001248 -0.0026    1.0905   
    24. B(H  20,C   0)                1.0944  0.000952 -0.0019    1.0925   
    25. B(H  21,C   0)                1.0896  0.001291 -0.0026    1.0870   
    26. B(H  22,C   3)                1.0785 -0.000074  0.0001    1.0787   
    27. B(H  23,C   4)                1.0782 -0.000581  0.0011    1.0793   
    28. B(H  24,C   5)                1.0784 -0.000367  0.0007    1.0791   
    29. B(H  25,C   6)                1.0771 -0.000044  0.0001    1.0772   
    30. B(H  26,C  11)                1.0803  0.000394 -0.0008    1.0796   
    31. B(H  27,C  14)                1.0775 -0.001916  0.0037    1.0812   
    32. A(H  20,C   0,H  21)          109.28 -0.000506    0.01    109.29   
    33. A(H  19,C   0,H  21)          109.00 -0.001768    0.44    109.44   
    34. A(N   1,C   0,H  20)          109.95 -0.002303    0.54    110.49   
    35. A(N   1,C   0,H  19)          109.82 -0.000631    0.19    110.02   
    36. A(N   1,C   0,H  21)          109.29  0.004314   -1.07    108.22   
    37. A(H  19,C   0,H  20)          109.48  0.000902   -0.12    109.36   
    38. A(C   0,N   1,C  18)          126.33  0.005064   -0.83    125.50   
    39. A(C   2,N   1,C  18)          106.62 -0.007989    1.29    107.91   
    40. A(C   0,N   1,C   2)          126.94  0.002915   -0.42    126.52   
    41. A(C   3,C   2,C   7)          120.58  0.000081    0.10    120.68   
    42. A(N   1,C   2,C   7)          110.81  0.001665   -0.46    110.35   
    43. A(N   1,C   2,C   3)          128.61 -0.001747    0.36    128.97   
    44. A(C   2,C   3,C   4)          117.85  0.000440   -0.11    117.74   
    45. A(C   4,C   3,H  22)          120.63 -0.000403    0.10    120.73   
    46. A(C   2,C   3,H  22)          121.52 -0.000037    0.01    121.53   
    47. A(C   3,C   4,C   5)          121.44 -0.001878    0.27    121.71   
    48. A(C   3,C   4,H  23)          119.25  0.000970   -0.14    119.11   
    49. A(C   5,C   4,H  23)          119.31  0.000908   -0.13    119.18   
    50. A(C   4,C   5,C   6)          121.00 -0.000927    0.10    121.10   
    51. A(C   4,C   5,H  24)          119.42  0.000943   -0.16    119.26   
    52. A(C   6,C   5,H  24)          119.58 -0.000016    0.05    119.64   
    53. A(C   5,C   6,H  25)          121.27 -0.000780    0.18    121.45   
[...]
   143. D(N  15,C  16,C  10,C  11)     -0.00 -0.000000    0.00     -0.00   
   144. D(N  15,C  16,C  10,N   9)    180.00  0.000001   -0.00    180.00   
   145. D(C  18,N  17,C  16,C  10)      0.02  0.000003   -0.01      0.01   
   146. D(C  18,N  17,C  16,N  15)   -179.99  0.000002   -0.00   -179.99   
   147. D(C   8,C  18,N  17,C  16)     -0.01 -0.000003    0.01     -0.00   
   148. D(N   1,C  18,N  17,C  16)   -179.97  0.000004   -0.01   -179.98   
   149. D(N  17,C  18,C   8,N   9)     -0.01  0.000001   -0.00     -0.01   
   150. D(N  17,C  18,C   8,C   7)   -179.99  0.000005   -0.01   -180.00   
   151. D(N   1,C  18,C   8,N   9)    179.96 -0.000006    0.02    179.98   
   152. D(N   1,C  18,C   8,C   7)     -0.03 -0.000001    0.01     -0.02   
   153. D(N  17,C  18,N   1,C   2)   -179.99 -0.000005    0.00   -179.99   
   154. D(N  17,C  18,N   1,C   0)     -0.23 -0.000022    0.08     -0.14   
   155. D(C   8,C  18,N   1,C   2)      0.04  0.000002   -0.02      0.03   
   156. D(C   8,C  18,N   1,C   0)    179.81 -0.000016    0.06    179.88   
    ----------------------------------------------------------------------------
                 *******************************************************
                 *** FINAL ENERGY EVALUATION AT THE STATIONARY POINT ***
                 ***               (AFTER   11 CYCLES)               ***
                 *******************************************************
      -----------------------------------------------------------      
     |                   =====================                   |     
     |                           x T B                           |     
     |                   =====================                   |     
     |                         S. Grimme                         |     
     |          Mulliken Center for Theoretical Chemistry        |     
     |                    University of Bonn                     |     
      -----------------------------------------------------------      

   * xtb version 6.2.3 (830e466) compiled by 'ehlert@majestix' on 2020-03-16

   xtb is free software: you can redistribute it and/or modify it under
   the terms of the GNU Lesser General Public License as published by
   the Free Software Foundation, either version 3 of the License, or
   (at your option) any later version.
   
   xtb is distributed in the hope that it will be useful,
   but WITHOUT ANY WARRANTY; without even the implied warranty of
   MERCHANTABILITY or FITNESS FOR A PARTICULAR PURPOSE.  See the
   GNU Lesser General Public License for more details.
   
   Cite this work as:
   * S. Grimme, C. Bannwarth, P. Shushkov, J. Chem. Theory Comput., 2017,
     13, 1989-2009. DOI: 10.1021/acs.jctc.7b00118
   * C. Bannwarth, S. Ehlert and S. Grimme., J. Chem. Theory Comput., 2019,
     15, 1652-1671. DOI: 10.1021/acs.jctc.8b01176
   * P. Pracht, E. Caldeweyher, S. Ehlert, S. Grimme, ChemRxiv, 2019, preprint.
     DOI: 10.26434/chemrxiv.8326202.v1
   
   for DFT-D4:
   * E. Caldeweyher, C. Bannwarth and S. Grimme, J. Chem. Phys., 2017,
     147, 034112. DOI: 10.1063/1.4993215
   * E. Caldeweyher, S. Ehlert, A. Hansen, H. Neugebauer, S. Spicher,
     C. Bannwarth and S. Grimme, J. Chem. Phys., 2019, 150, 154122.
     DOI: 10.1063/1.5090222
   
   for sTDA-xTB:
   * S. Grimme and C. Bannwarth, J. Chem. Phys., 2016, 145, 054103.
     DOI: 10.1063/1.4959605
   
   in the mass-spec context:
   * V. Asgeirsson, C. Bauer and S. Grimme, Chem. Sci., 2017, 8, 4879.
     DOI: 10.1039/c7sc00601b
   
   for metadynamics refer to:
   * S. Grimme, J. Chem. Theory Comput., 2019, 155, 2847-2862
     DOI: 10.1021/acs.jctc.9b00143
   
   with help from (in alphabetical order)
   C. Bannwarth, F. Bohle, G. Brandenburg, E. Caldeweyher, M. Checinski,
   S. Dohm, S. Ehlert, S. Ehrlich, F. März, H. Neugebauer, J. Pisarek,
   P. Pracht, P. Shushkov, and S. Spicher.
   
 * started run on 2026/01/19 at 00:01:08.579     

           -------------------------------------------------
          |                Calculation Setup                |
           -------------------------------------------------

          program call               : /appl/orca_4.2.1/orca_4_2_1_linux_x86-64_openmpi314/xtb pre_opt_XTB.xyz --grad -c 0 -u 0 -P 1 --namespace pre_opt
          hostname                   : cnode11
          calculation namespace      : pre_opt
          coordinate file            : pre_opt_XTB.xyz
          omp threads                :                     1
          number of atoms            :                    28
          number of electrons        :                    92
          charge                     :                     0
          spin                       :                   0.0
          first test random number   :      0.11595779464413

########################################################################
[WARNING] Please study the warnings concerning your input carefully
-2- prog_main: XTBPATH is not set, using XTBHOME instead
-1- prog_main: XTBHOME is not set, using HOME instead
########################################################################
           ------------------------------------------------- 
          |                 G F N 2 - x T B                 |
          | Geometry, Frequencies, Noncovalent interactions |
          |            JCTC 2019 parametrisation            |
           ------------------------------------------------- 
             k(s)              :                1.8500
             k(p)              :                2.2300
             k(d)              :                2.2300
             k(f)              :                2.0000
             kEN (H0ij)        :               -2.0000
             D4 a1             :                0.5200
             D4 a2             :                5.0000
             D4 s6             :                1.0000
             D4 s8             :                2.7000
             D4 s9             :                5.0000
             alphaj            :                2.0000

  Z AO/shell   Hii/eV     exponent
  1     Wed Apr 25 08:07:45 CEST 2018   EN: 2.200 GM2: 0.406  GM3: 0.0800  RAES: 1.40
     1s    -10.707211    1.230000
  6     Wed Apr 25 08:07:45 CEST 2018   EN: 2.550 GM2: 0.538  GM3: 0.1500  RAES: 3.00
     2s    -13.970922    2.096432
     2p    -10.063292    1.800000
  7     Wed Apr 25 08:07:45 CEST 2018   EN: 3.040 GM2: 0.461  GM3:-0.0640  RAES: 1.90
     2s    -16.686243    2.339881
     2p    -12.523956    2.014332
 35     Tue Apr 24 12:21:41 CEST 2018   EN: 2.960 GM2: 0.261  GM3: 0.1300  RAES: 4.00
     4s    -23.583718    2.077587
     4p    -12.588824    2.263120
     4d      0.047980    1.845038

           ------------------------------------------------- 
          |        Self-Consistent Charge Iterations        |
           ------------------------------------------------- 

          ...................................................
          :                      SETUP                      :
          :.................................................:
          :  # basis functions                  91          :
          :  # atomic orbitals                  90          :
          :  # shells                           48          :
          :  # electrons                        92          :
          :  max. iterations                   250          :
          :  Hamiltonian                  GFN2-xTB          :
          :  restarted?                      false          :
          :  GBSA solvation                  false          :
          :  PC potential                    false          :
          :  electronic temp.          300.0000000     K    :
          :  accuracy                    1.0000000          :
          :  -> integral cutoff          0.2500000E+02      :
          :  -> integral neglect         0.1000000E-07      :
          :  -> SCF convergence          0.1000000E-05 Eh   :
          :  -> wf. convergence          0.1000000E-03 e    :
          :  Broyden damping             0.4000000          :
          ...................................................

 iter      E             dE          RMSdq      gap      omega  full diag
   1    -51.0487953 -0.510488E+02  0.499E+00    1.67       0.0  T
   2    -51.1236682 -0.748729E-01  0.329E+00    1.49       1.0  T
   3    -51.1194856  0.418260E-02  0.160E+00    1.40       1.0  T
   4    -51.1422071 -0.227215E-01  0.531E-01    1.26       1.0  T
   5    -51.1487959 -0.658877E-02  0.288E-01    1.26       1.0  T
   6    -51.1493489 -0.553040E-03  0.153E-01    1.27       1.0  T
   7    -51.1494271 -0.781482E-04  0.101E-01    1.25       1.0  T
   8    -51.1494545 -0.274263E-04  0.785E-02    1.26       1.0  T
   9    -51.1494844 -0.299132E-04  0.383E-02    1.26       1.0  T
  10    -51.1494978 -0.133245E-04  0.926E-03    1.26       2.0  T
  11    -51.1494980 -0.203665E-06  0.450E-03    1.26       4.2  T
  12    -51.1494981 -0.147335E-06  0.145E-03    1.26      13.0  T
  13    -51.1494981 -0.381548E-07  0.464E-04    1.26      40.7  T
  14    -51.1494982 -0.120664E-08  0.219E-04    1.26      86.2  T

   *** convergence criteria satisfied after 14 iterations ***

         #    Occupation            Energy/Eh            Energy/eV
      -------------------------------------------------------------
         1        2.0000           -0.8410597             -22.8864
       ...           ...                  ...                  ...
        40        2.0000           -0.4335503             -11.7975
        41        2.0000           -0.4194761             -11.4145
        42        2.0000           -0.4160951             -11.3225
        43        2.0000           -0.4084167             -11.1136
        44        2.0000           -0.4002932             -10.8925
        45        2.0000           -0.3918628             -10.6631
        46        2.0000           -0.3608555              -9.8194 (HOMO)
        47                         -0.3145602              -8.5596 (LUMO)
        48                         -0.2655995              -7.2273
        49                         -0.2469919              -6.7210
        50                         -0.2354400              -6.4066
        51                         -0.2180364              -5.9331
       ...                                ...                  ...
        90                          0.7118387              19.3701
      -------------------------------------------------------------
                  HL-Gap            0.0462953 Eh            1.2598 eV
             Fermi-level           -0.3377079 Eh           -9.1895 eV

 SCC (total)                   0 d,  0 h,  0 min,  0.057 sec
 SCC setup                      ...        0 min,  0.000 sec (  0.747%)
 Dispersion                     ...        0 min,  0.000 sec (  0.685%)
 integral evaluation            ...        0 min,  0.020 sec ( 35.830%)
 zeroth order Hamiltonian       ...        0 min,  0.000 sec (  0.403%)
 iterations                     ...        0 min,  0.018 sec ( 31.224%)
 molecular gradient             ...        0 min,  0.017 sec ( 30.837%)
 printout                       ...        0 min,  0.000 sec (  0.209%)

         :::::::::::::::::::::::::::::::::::::::::::::::::::::
         ::                     SUMMARY                     ::
         :::::::::::::::::::::::::::::::::::::::::::::::::::::
         :: total energy             -50.385132995831 Eh    ::
         :: gradient norm              0.000436439088 Eh/a0 ::
         :: HOMO-LUMO gap              1.259758771736 eV    ::
         ::.................................................::
         :: SCC energy               -51.149498150597 Eh    ::
         :: -> isotropic ES            0.030878630207 Eh    ::
         :: -> anisotropic ES          0.002516532937 Eh    ::
         :: -> anisotropic XC          0.033738485346 Eh    ::
         :: -> dispersion             -0.034713293753 Eh    ::
         :: repulsion energy           0.764613088941 Eh    ::
         :: add. restraining           0.000000000000 Eh    ::
         :::::::::::::::::::::::::::::::::::::::::::::::::::::

           -------------------------------------------------
          |                Property Printout                |
           -------------------------------------------------

    * Orbital Energies and Occupations

         #    Occupation            Energy/Eh            Energy/eV
      -------------------------------------------------------------
         1        2.0000           -0.8410597             -22.8864
       ...           ...                  ...                  ...
        34        2.0000           -0.4692770             -12.7697
        35        2.0000           -0.4688690             -12.7586
        36        2.0000           -0.4559774             -12.4078
        37        2.0000           -0.4504177             -12.2565
        38        2.0000           -0.4435182             -12.0687
        39        2.0000           -0.4424292             -12.0391
        40        2.0000           -0.4335503             -11.7975
        41        2.0000           -0.4194761             -11.4145
        42        2.0000           -0.4160951             -11.3225
        43        2.0000           -0.4084167             -11.1136
        44        2.0000           -0.4002932             -10.8925
        45        2.0000           -0.3918628             -10.6631
        46        2.0000           -0.3608555              -9.8194 (HOMO)
        47                         -0.3145602              -8.5596 (LUMO)
        48                         -0.2655995              -7.2273
        49                         -0.2469919              -6.7210
        50                         -0.2354400              -6.4066
        51                         -0.2180364              -5.9331
        52                         -0.2097731              -5.7082
        53                         -0.1698352              -4.6215
        54                         -0.1085293              -2.9532
        55                         -0.0867748              -2.3613
        56                         -0.0123753              -0.3367
        57                          0.0300186               0.8168
       ...                                ...                  ...
        90                          0.7118387              19.3701
      -------------------------------------------------------------
                  HL-Gap            0.0462953 Eh            1.2598 eV
             Fermi-level           -0.3377079 Eh           -9.1895 eV

     #   Z        covCN         q      C6AA      α(0)
     1   6 C      3.690    -0.053    21.723     6.670
     2   7 N      2.787    -0.040    22.022     6.970
     3   6 C      3.094     0.050    26.771     8.480
     4   6 C      2.910    -0.047    29.173     8.857
     5   6 C      2.924    -0.024    28.611     8.772
     6   6 C      2.920    -0.036    28.895     8.815
     7   6 C      2.911    -0.020    28.512     8.756
     8   6 C      3.054    -0.022    28.508     8.756
     9   6 C      3.069     0.074    26.276     8.405
    10   7 N      1.838    -0.230    26.890     7.685
    11   6 C      2.997     0.062    26.589     8.459
    12   6 C      2.994    -0.029    28.713     8.790
    13   6 C      2.908     0.064    26.561     8.451
    14  35 Br     1.059    -0.154   189.294    22.184
    15   6 C      2.966     0.062    26.611     8.462
    16   7 N      1.846    -0.219    26.614     7.646
    17   6 C      2.986     0.156    24.621     8.139
    18   7 N      1.844    -0.257    27.549     7.779
    19   6 C      3.088     0.134    24.976     8.192
    20   1 H      0.924     0.061     2.187     2.313
    21   1 H      0.924     0.061     2.187     2.313
    22   1 H      0.925     0.090     1.881     2.145
    23   1 H      0.926     0.041     2.442     2.444
    24   1 H      0.926     0.043     2.407     2.426
    25   1 H      0.926     0.043     2.414     2.430
    26   1 H      0.926     0.055     2.258     2.350
    27   1 H      0.926     0.072     2.060     2.244
    28   1 H      0.925     0.065     2.138     2.287

 Mol. C6AA /au·bohr⁶  :      14371.774425
 Mol. C8AA /au·bohr⁸  :     410727.089476
 Mol. α(0) /au        :        191.215913


Wiberg/Mayer (AO) data.
largest (>0.10) Wiberg bond orders for each atom
          total WBO             WBO to atom ...
     1  C   3.961        N    2 0.996    H   22 0.976    H   20 0.975    H   21 0.975
     2  N   3.574        C   19 1.207    C    3 1.114    C    1 0.996
     3  C   3.951        C    4 1.375    C    8 1.260    N    2 1.114
     4  C   3.983        C    5 1.451    C    3 1.375    H   23 0.967    C    7 0.103
     5  C   3.972        C    4 1.451    C    6 1.408    H   24 0.971
     6  C   3.981        C    7 1.463    C    5 1.408    H   25 0.970
     7  C   3.980        C    6 1.463    C    8 1.371    H   26 0.968    C    4 0.103
     8  C   3.981        C    7 1.371    C    3 1.260    C    9 1.134
     9  C   3.979        N   10 1.506    C    8 1.134    C   19 1.094
    10  N   3.063        C    9 1.506    C   11 1.279
    11  C   3.974        C   12 1.282    N   10 1.279    C   17 1.192
    12  C   3.975        C   13 1.508    C   11 1.282    H   27 0.962
    13  C   3.924        C   12 1.508    C   15 1.282    Br  14 0.985
    14  Br  1.124        C   13 0.985
    15  C   3.963        N   16 1.551    C   13 1.282    H   28 0.959
    16  N   3.085        C   15 1.551    C   17 1.279
    17  C   3.967        N   18 1.286    N   16 1.279    C   11 1.192
    18  N   3.049        C   19 1.445    C   17 1.286
    19  C   3.960        N   18 1.445    N    2 1.207    C    9 1.094
    20  H   0.994        C    1 0.975
    21  H   0.994        C    1 0.975
    22  H   0.992        C    1 0.976
    23  H   0.998        C    4 0.967
    24  H   0.998        C    5 0.971
    25  H   0.998        C    6 0.970
    26  H   0.996        C    7 0.968
    27  H   0.995        C   12 0.962
    28  H   0.995        C   15 0.959

molecular dipole:
                 x           y           z       tot (Debye)
 q only:       -2.218       0.312       0.029
   full:       -2.659       0.228       0.019       6.784
molecular quadrupole (traceless):
                xx          xy          yy          xz          yz          zz
 q only:       -7.707      -0.457       6.977      -1.329       0.870       0.730
  q+dip:      -13.642       1.361       9.043      -1.406       0.628       4.599
   full:      -15.285       0.691       5.378      -1.498      -0.357       9.907


           -------------------------------------------------
          | TOTAL ENERGY              -50.385132995831 Eh   |
          | GRADIENT NORM               0.000436439088 Eh/α |
          | HOMO-LUMO GAP               1.259758771736 eV   |
           -------------------------------------------------

------------------------------------------------------------------------
 * finished run on 2026/01/19 at 00:01:08.727     
------------------------------------------------------------------------
 total:
 * wall-time:     0 d,  0 h,  0 min,  0.147 sec
 *  cpu-time:     0 d,  0 h,  0 min,  0.087 sec
 * ratio c/w:     0.594 speedup
 SCF:
 * wall-time:     0 d,  0 h,  0 min,  0.057 sec
 *  cpu-time:     0 d,  0 h,  0 min,  0.057 sec
 * ratio c/w:     1.000 speedup


-------------------------   --------------------
FINAL SINGLE POINT ENERGY         0.000000000000
-------------------------   --------------------

                                *** OPTIMIZATION RUN DONE ***

Timings for individual modules:

Sum of individual times         ...        8.933 sec (=   0.149 min)
Geometry relaxation             ...        3.510 sec (=   0.059 min)  39.3 %
XTB module                      ...        5.423 sec (=   0.090 min)  60.7 %
                             ****ORCA TERMINATED NORMALLY****
TOTAL RUN TIME: 0 days 0 hours 0 minutes 13 seconds 355 msec
