 Entering Gaussian System, Link 0=g16
 Initial command:
 /appl/Gaussian16/AVX_revB01/g16/l1.exe "/home/junhkim/WORK/Review_DD/TADF-Design/data/td_dft/results/mol_324/Gau-2567070.inp" -scrdir="/home/junhkim/WORK/Review_DD/TADF-Design/data/td_dft/results/mol_324/"
 Entering Link 1 = /appl/Gaussian16/AVX_revB01/g16/l1.exe PID=   2567072.
  
 Copyright (c) 1988-2017, Gaussian, Inc.  All Rights Reserved.
  
 This is part of the Gaussian(R) 16 program.  It is based on
 the Gaussian(R) 09 system (copyright 2009, Gaussian, Inc.),
 the Gaussian(R) 03 system (copyright 2003, Gaussian, Inc.),
 the Gaussian(R) 98 system (copyright 1998, Gaussian, Inc.),
 the Gaussian(R) 94 system (copyright 1995, Gaussian, Inc.),
 the Gaussian 92(TM) system (copyright 1992, Gaussian, Inc.),
 the Gaussian 90(TM) system (copyright 1990, Gaussian, Inc.),
 the Gaussian 88(TM) system (copyright 1988, Gaussian, Inc.),
 the Gaussian 86(TM) system (copyright 1986, Carnegie Mellon
 University), and the Gaussian 82(TM) system (copyright 1983,
 Carnegie Mellon University). Gaussian is a federally registered
 trademark of Gaussian, Inc.
  
 This software contains proprietary and confidential information,
 including trade secrets, belonging to Gaussian, Inc.
  
 This software is provided under written license and may be
 used, copied, transmitted, or stored only in accord with that
 written license.
  
 The following legend is applicable only to US Government
 contracts under FAR:
  
                    RESTRICTED RIGHTS LEGEND
  
 Use, reproduction and disclosure by the US Government is
 subject to restrictions as set forth in subparagraphs (a)
 and (c) of the Commercial Computer Software - Restricted
 Rights clause in FAR 52.227-19.
  
 Gaussian, Inc.
 340 Quinnipiac St., Bldg. 40, Wallingford CT 06492
  
  
 ---------------------------------------------------------------
 Warning -- This program may not be used in any manner that
 competes with the business of Gaussian, Inc. or will provide
 assistance to any competitor of Gaussian, Inc.  The licensee
 of this program is prohibited from giving any competitor of
 Gaussian, Inc. access to this program.  By using this program,
 the user acknowledges that Gaussian, Inc. is engaged in the
 business of creating and licensing software in the field of
 computational chemistry and represents and warrants to the
 licensee that it is not a competitor of Gaussian, Inc. and that
 it will not use this program in any manner prohibited above.
 ---------------------------------------------------------------
  

 Cite this work as:
 Gaussian 16, Revision B.01,
 M. J. Frisch, G. W. Trucks, H. B. Schlegel, G. E. Scuseria, 
 M. A. Robb, J. R. Cheeseman, G. Scalmani, V. Barone, 
 G. A. Petersson, H. Nakatsuji, X. Li, M. Caricato, A. V. Marenich, 
 J. Bloino, B. G. Janesko, R. Gomperts, B. Mennucci, H. P. Hratchian, 
 J. V. Ortiz, A. F. Izmaylov, J. L. Sonnenberg, D. Williams-Young, 
 F. Ding, F. Lipparini, F. Egidi, J. Goings, B. Peng, A. Petrone, 
 T. Henderson, D. Ranasinghe, V. G. Zakrzewski, J. Gao, N. Rega, 
 G. Zheng, W. Liang, M. Hada, M. Ehara, K. Toyota, R. Fukuda, 
 J. Hasegawa, M. Ishida, T. Nakajima, Y. Honda, O. Kitao, H. Nakai, 
 T. Vreven, K. Throssell, J. A. Montgomery, Jr., J. E. Peralta, 
 F. Ogliaro, M. J. Bearpark, J. J. Heyd, E. N. Brothers, K. N. Kudin, 
 V. N. Staroverov, T. A. Keith, R. Kobayashi, J. Normand, 
 K. Raghavachari, A. P. Rendell, J. C. Burant, S. S. Iyengar, 
 J. Tomasi, M. Cossi, J. M. Millam, M. Klene, C. Adamo, R. Cammi, 
 J. W. Ochterski, R. L. Martin, K. Morokuma, O. Farkas, 
 J. B. Foresman, and D. J. Fox, Gaussian, Inc., Wallingford CT, 2016.
 
 ******************************************
 Gaussian 16:  ES64L-G16RevB.01 20-Dec-2017
                19-Jan-2026 
 ******************************************
 %OldChk=/home/junhkim/WORK/Review_DD/TADF-Design/data/td_dft/results/mol_324/opt
 .chk
 %nprocshared=16
 Will use up to   16 processors via shared memory.
 %mem=60GB
 Copying data from "/home/junhkim/WORK/Review_DD/TADF-Design/data/td_dft/results/mol_324/opt.chk" to current chk file "/home/junhkim/WORK/Review_DD/TADF-Design/data/td_dft/results/mol_324/Gau-2567072.chk"
 IOpt=  2 FromEx=T IUOpen= 4 IOptOp= 5 NList=   0 IFRang= 0 IUIn= 4 IUOut= 2.
 -----------------------------------------------------------------
 # b3lyp/6-31g* TD=(Nstates=1,50-50) Geom=Check Guess=Read SCF=XQC
 -----------------------------------------------------------------
 1/29=2,38=1,172=1/1;
 2/12=2,40=1/2;
 3/5=1,6=6,7=1,11=9,14=-4,25=1,30=1,74=-5,116=-2/1,2,3,8;
 4/5=1/1;
 5/5=2,8=3,13=1,38=6/2,8;
 8/6=1,10=2,108=1/1;
 9/41=1,42=1,48=2,70=2/14;
 6/7=2,8=2,9=2,10=2/1;
 99/5=1,9=1/99;
 ------------------
 TD-DFT calculation
 ------------------
 Structure from the checkpoint file:  "/home/junhkim/WORK/Review_DD/TADF-Design/data/td_dft/results/mol_324/Gau-2567072.chk"
 Charge =  0 Multiplicity = 1
 Redundant internal coordinates found in file.  (old form).
 C,0,-1.7683914982,2.5822751845,0.4763459054
 N,0,-1.2981700293,1.2184159529,0.3283945965
 C,0,-2.0951610661,0.0770303347,0.2026512425
 C,0,-3.4863774142,-0.0174803225,0.1889062231
 C,0,-4.044727633,-1.2894426111,0.0495140666
 C,0,-3.2458244322,-2.4383724071,-0.0731678179
 C,0,-1.8564686,-2.3387576732,-0.0588982165
 C,0,-1.2764741325,-1.0760164838,0.0795861428
 C,0,0.0899273728,-0.6045943325,0.1341995393
 N,0,1.2356911442,-1.2433289609,0.0678227629
 C,0,2.3398088304,-0.4432213361,0.1575400375
 C,0,3.6234923912,-1.0352441755,0.0965747083
 C,0,4.722867583,-0.217973279,0.1881904851
 Br,0,6.4918509552,-0.9270375645,0.1157685121
 C,0,4.5495433025,1.1806980988,0.3396557483
 N,0,3.3703645612,1.7630728137,0.3998403491
 C,0,2.258823358,0.9875918367,0.3127140917
 N,0,1.0597405894,1.6323649283,0.3795727166
 C,0,0.0235369282,0.8367310741,0.2904584324
 H,0,-2.373756052,2.6877317711,1.3838230505
 H,0,-2.3681174882,2.8822736156,-0.3905107662
 H,0,-0.8924723556,3.2285131513,0.549930973
 H,0,-4.1164132115,0.8613967597,0.2826573702
 H,0,-5.1265639105,-1.3898758551,0.0359155982
 H,0,-3.7179167517,-3.4103008218,-0.1798138536
 H,0,-1.2263483045,-3.2180306661,-0.1527341299
 H,0,3.7018440563,-2.110525624,-0.0200017208
 H,0,5.4256898073,1.822108592,0.4116079524
 Recover connectivity data from disk.
                           ----------------------------
                           !    Current Parameters    !
                           ! (Angstroms and Degrees)  !
 --------------------------                            --------------------------
 ! Name  Definition              Value                                          !
 --------------------------------------------------------------------------------
 ! R1    R(1,2)                  1.4502                                         !
 ! R2    R(1,20)                 1.0959                                         !
 ! R3    R(1,21)                 1.096                                          !
 ! R4    R(1,22)                 1.091                                          !
 ! R5    R(2,3)                  1.3978                                         !
 ! R6    R(2,19)                 1.3762                                         !
 ! R7    R(3,4)                  1.3945                                         !
 ! R8    R(3,8)                  1.4195                                         !
 ! R9    R(4,5)                  1.3961                                         !
 ! R10   R(4,23)                 1.0854                                         !
 ! R11   R(5,6)                  1.4048                                         !
 ! R12   R(5,24)                 1.0866                                         !
 ! R13   R(6,7)                  1.393                                          !
 ! R14   R(6,25)                 1.0858                                         !
 ! R15   R(7,8)                  1.3965                                         !
 ! R16   R(7,26)                 1.0858                                         !
 ! R17   R(8,9)                  1.4465                                         !
 ! R18   R(9,10)                 1.3135                                         !
 ! R19   R(9,19)                 1.4513                                         !
 ! R20   R(10,11)                1.3665                                         !
 ! R21   R(11,12)                1.4149                                         !
 ! R22   R(11,17)                1.4415                                         !
 ! R23   R(12,13)                1.3729                                         !
 ! R24   R(12,27)                1.0844                                         !
 ! R25   R(13,14)                1.9072                                         !
 ! R26   R(13,15)                1.4175                                         !
 ! R27   R(15,16)                1.3165                                         !
 ! R28   R(15,28)                1.0882                                         !
 ! R29   R(16,17)                1.3581                                         !
 ! R30   R(17,18)                1.3631                                         !
 ! R31   R(18,19)                1.3095                                         !
 ! A1    A(2,1,20)             110.7366                                         !
 ! A2    A(2,1,21)             110.7427                                         !
 ! A3    A(2,1,22)             107.6755                                         !
 ! A4    A(20,1,21)            109.0465                                         !
 ! A5    A(20,1,22)            109.3069                                         !
 ! A6    A(21,1,22)            109.302                                          !
 ! A7    A(1,2,3)              126.3169                                         !
 ! A8    A(1,2,19)             125.102                                          !
 ! A9    A(3,2,19)             108.5811                                         !
 ! A10   A(2,3,4)              128.6879                                         !
 ! A11   A(2,3,8)              110.014                                          !
 ! A12   A(4,3,8)              121.2981                                         !
 ! A13   A(3,4,5)              117.4989                                         !
 ! A14   A(3,4,23)             121.5577                                         !
 ! A15   A(5,4,23)             120.9434                                         !
 ! A16   A(4,5,6)              121.7649                                         !
 ! A17   A(4,5,24)             118.9245                                         !
 ! A18   A(6,5,24)             119.3105                                         !
 ! A19   A(5,6,7)              120.5204                                         !
 ! A20   A(5,6,25)             119.5666                                         !
 ! A21   A(7,6,25)             119.913                                          !
 ! A22   A(6,7,8)              118.6807                                         !
 ! A23   A(6,7,26)             121.3332                                         !
 ! A24   A(8,7,26)             119.9861                                         !
 ! A25   A(3,8,7)              120.237                                          !
 ! A26   A(3,8,9)              106.0701                                         !
 ! A27   A(7,8,9)              133.6929                                         !
 ! A28   A(8,9,10)             131.5782                                         !
 ! A29   A(8,9,19)             106.5305                                         !
 ! A30   A(10,9,19)            121.8913                                         !
 ! A31   A(9,10,11)            114.6315                                         !
 ! A32   A(10,11,12)           119.0273                                         !
 ! A33   A(10,11,17)           122.8785                                         !
 ! A34   A(12,11,17)           118.0941                                         !
 ! A35   A(11,12,13)           118.3284                                         !
 ! A36   A(11,12,27)           119.0168                                         !
 ! A37   A(13,12,27)           122.6548                                         !
 ! A38   A(12,13,14)           121.257                                          !
 ! A39   A(12,13,15)           119.7747                                         !
 ! A40   A(14,13,15)           118.9684                                         !
 ! A41   A(13,15,16)           123.4281                                         !
 ! A42   A(13,15,28)           119.3543                                         !
 ! A43   A(16,15,28)           117.2176                                         !
 ! A44   A(15,16,17)           118.5249                                         !
 ! A45   A(11,17,16)           121.8499                                         !
 ! A46   A(11,17,18)           121.6162                                         !
 ! A47   A(16,17,18)           116.5339                                         !
 ! A48   A(17,18,19)           113.9137                                         !
 ! A49   A(2,19,9)             108.8043                                         !
 ! A50   A(2,19,18)            126.127                                          !
 ! A51   A(9,19,18)            125.0688                                         !
 ! D1    D(20,1,2,3)            60.4546                                         !
 ! D2    D(20,1,2,19)         -119.4673                                         !
 ! D3    D(21,1,2,3)           -60.6437                                         !
 ! D4    D(21,1,2,19)          119.4344                                         !
 ! D5    D(22,1,2,3)           179.9066                                         !
 ! D6    D(22,1,2,19)           -0.0153                                         !
 ! D7    D(1,2,3,4)              0.0622                                         !
 ! D8    D(1,2,3,8)           -179.9429                                         !
 ! D9    D(19,2,3,4)           179.9948                                         !
 ! D10   D(19,2,3,8)            -0.0103                                         !
 ! D11   D(1,2,19,9)           179.944                                          !
 ! D12   D(1,2,19,18)           -0.0547                                         !
 ! D13   D(3,2,19,9)             0.0104                                         !
 ! D14   D(3,2,19,18)         -179.9883                                         !
 ! D15   D(2,3,4,5)            179.9957                                         !
 ! D16   D(2,3,4,23)            -0.0034                                         !
 ! D17   D(8,3,4,5)              0.0014                                         !
 ! D18   D(8,3,4,23)          -179.9977                                         !
 ! D19   D(2,3,8,7)           -179.9949                                         !
 ! D20   D(2,3,8,9)              0.006                                          !
 ! D21   D(4,3,8,7)              0.0004                                         !
 ! D22   D(4,3,8,9)           -179.9987                                         !
 ! D23   D(3,4,5,6)             -0.0021                                         !
 ! D24   D(3,4,5,24)           179.9992                                         !
 ! D25   D(23,4,5,6)           179.9971                                         !
 ! D26   D(23,4,5,24)           -0.0016                                         !
 ! D27   D(4,5,6,7)              0.001                                          !
 ! D28   D(4,5,6,25)          -179.9987                                         !
 ! D29   D(24,5,6,7)           179.9996                                         !
 ! D30   D(24,5,6,25)            0.0                                            !
 ! D31   D(5,6,7,8)              0.0009                                         !
 ! D32   D(5,6,7,26)           179.9997                                         !
 ! D33   D(25,6,7,8)          -179.9995                                         !
 ! D34   D(25,6,7,26)           -0.0007                                         !
 ! D35   D(6,7,8,3)             -0.0015                                         !
 ! D36   D(6,7,8,9)            179.9973                                         !
 ! D37   D(26,7,8,3)           179.9997                                         !
 ! D38   D(26,7,8,9)            -0.0015                                         !
 ! D39   D(3,8,9,10)           179.9973                                         !
 ! D40   D(3,8,9,19)             0.0003                                         !
 ! D41   D(7,8,9,10)            -0.0016                                         !
 ! D42   D(7,8,9,19)          -179.9986                                         !
 ! D43   D(8,9,10,11)         -179.9947                                         !
 ! D44   D(19,9,10,11)           0.0019                                         !
 ! D45   D(8,9,19,2)            -0.0066                                         !
 ! D46   D(8,9,19,18)          179.9921                                         !
 ! D47   D(10,9,19,2)          179.9961                                         !
 ! D48   D(10,9,19,18)          -0.0052                                         !
 ! D49   D(9,10,11,12)        -179.9992                                         !
 ! D50   D(9,10,11,17)           0.0025                                         !
 ! D51   D(10,11,12,13)       -179.9978                                         !
 ! D52   D(10,11,12,27)          0.002                                          !
 ! D53   D(17,11,12,13)          0.0006                                         !
 ! D54   D(17,11,12,27)       -179.9997                                         !
 ! D55   D(10,11,17,16)        179.9968                                         !
 ! D56   D(10,11,17,18)         -0.0044                                         !
 ! D57   D(12,11,17,16)         -0.0014                                         !
 ! D58   D(12,11,17,18)        179.9973                                         !
 ! D59   D(11,12,13,14)       -179.9998                                         !
 ! D60   D(11,12,13,15)          0.0004                                         !
 ! D61   D(27,12,13,14)          0.0004                                         !
 ! D62   D(27,12,13,15)       -179.9993                                         !
 ! D63   D(12,13,15,16)         -0.0007                                         !
 ! D64   D(12,13,15,28)        179.9991                                         !
 ! D65   D(14,13,15,16)        179.9996                                         !
 ! D66   D(14,13,15,28)         -0.0007                                         !
 ! D67   D(13,15,16,17)         -0.0002                                         !
 ! D68   D(28,15,16,17)       -179.9999                                         !
 ! D69   D(15,16,17,11)          0.0012                                         !
 ! D70   D(15,16,17,18)       -179.9976                                         !
 ! D71   D(11,17,18,19)          0.0013                                         !
 ! D72   D(16,17,18,19)       -179.9999                                         !
 ! D73   D(17,18,19,2)        -179.9983                                         !
 ! D74   D(17,18,19,9)           0.0032                                         !
 --------------------------------------------------------------------------------
                          Input orientation:                          
 ---------------------------------------------------------------------
 Center     Atomic      Atomic             Coordinates (Angstroms)
 Number     Number       Type             X           Y           Z
 ---------------------------------------------------------------------
      1          6           0       -1.768391    2.582275    0.476346
      2          7           0       -1.298170    1.218416    0.328395
      3          6           0       -2.095161    0.077030    0.202651
      4          6           0       -3.486377   -0.017480    0.188906
      5          6           0       -4.044728   -1.289443    0.049514
      6          6           0       -3.245824   -2.438372   -0.073168
      7          6           0       -1.856469   -2.338758   -0.058898
      8          6           0       -1.276474   -1.076016    0.079586
      9          6           0        0.089927   -0.604594    0.134200
     10          7           0        1.235691   -1.243329    0.067823
     11          6           0        2.339809   -0.443221    0.157540
     12          6           0        3.623492   -1.035244    0.096575
     13          6           0        4.722868   -0.217973    0.188190
     14         35           0        6.491851   -0.927038    0.115769
     15          6           0        4.549543    1.180698    0.339656
     16          7           0        3.370365    1.763073    0.399840
     17          6           0        2.258823    0.987592    0.312714
     18          7           0        1.059741    1.632365    0.379573
     19          6           0        0.023537    0.836731    0.290458
     20          1           0       -2.373756    2.687732    1.383823
     21          1           0       -2.368117    2.882274   -0.390511
     22          1           0       -0.892472    3.228513    0.549931
     23          1           0       -4.116413    0.861397    0.282657
     24          1           0       -5.126564   -1.389876    0.035916
     25          1           0       -3.717917   -3.410301   -0.179814
     26          1           0       -1.226348   -3.218031   -0.152734
     27          1           0        3.701844   -2.110526   -0.020002
     28          1           0        5.425690    1.822109    0.411608
 ---------------------------------------------------------------------
                    Distance matrix (angstroms):
                    1          2          3          4          5
     1  C    0.000000
     2  N    1.450210   0.000000
     3  C    2.541248   1.397772   0.000000
     4  C    3.129349   2.516972   1.394491   0.000000
     5  C    4.511551   3.729706   2.385688   1.396092   0.000000
     6  C    5.262288   4.162537   2.779812   2.446889   1.404755
     7  C    4.950839   3.621488   2.441601   2.847163   2.429258
     8  C    3.712479   2.307985   1.419475   2.452778   2.776631
     9  C    3.704936   2.299542   2.289958   3.624590   4.191845
    10  N    4.881255   3.542392   3.585541   4.880092   5.280652
    11  C    5.112003   4.003139   4.465608   5.841805   6.441278
    12  C    6.504082   5.418070   5.826783   7.182939   7.672576
    13  C    7.075371   6.191588   6.824423   8.211693   8.833912
    14  Br   8.982032   8.082859   8.645951  10.019865  10.543017
    15  C    6.472975   5.847846   6.737132   8.126154   8.946914
    16  N    5.204206   4.700742   5.723075   7.087297   8.026467
    17  C    4.334541   3.564509   4.449541   5.833766   6.707378
    18  N    2.984967   2.394518   3.521899   4.839993   5.890797
    19  C    2.508483   1.376238   2.252496   3.613791   4.596678
    20  H    1.095948   2.104686   2.878983   3.159735   4.515578
    21  H    1.095952   2.104765   2.880232   3.161456   4.517506
    22  H    1.090996   2.062561   3.391004   4.170750   5.531641
    23  H    2.917558   2.841135   2.169583   1.085430   2.164626
    24  H    5.220085   4.641695   3.371797   2.144082   1.086573
    25  H    6.335784   5.247711   3.865371   3.420643   2.158109
    26  H    5.859445   4.463037   3.426158   3.932934   3.421055
    27  H    7.224418   6.016924   6.200020   7.489660   7.790275
    28  H    7.234421   6.751419   7.723481   9.102671   9.975052
                    6          7          8          9         10
     6  C    0.000000
     7  C    1.392995   0.000000
     8  C    2.399518   1.396455   0.000000
     9  C    3.812215   2.614013   1.446470   0.000000
    10  N    4.640257   3.282906   2.517758   1.313454   0.000000
    11  C    5.935752   4.609626   3.672058   2.255782   1.366491
    12  C    7.013209   5.635006   4.900166   3.559910   2.397023
    13  C    8.276384   6.917112   6.061364   4.649358   3.636790
    14  Br   9.856072   8.468642   7.769838   6.410065   5.265886
    15  C    8.604409   7.320000   6.253229   4.808082   4.114780
    16  N    7.851741   6.659973   5.454915   4.054341   3.702096
    17  C    6.495174   5.304557   4.100141   2.696485   2.466532
    18  N    5.942539   4.946347   3.589320   2.450456   2.897889
    19  C    4.641902   3.706778   2.322305   1.451290   2.417754
    20  H    5.400025   5.254962   4.131690   4.297756   5.496654
    21  H    5.401884   5.256512   4.132885   4.298320   5.497099
    22  H    6.167666   5.682822   4.347144   3.978776   4.975830
    23  H    3.431182   3.932556   3.443844   4.456958   5.755089
    24  H    2.156021   3.406301   3.863108   5.276183   6.364023
    25  H    1.085767   2.151236   3.387745   4.740282   5.412515
    26  H    2.166214   1.085807   2.155159   2.940232   3.163816
    27  H    6.955603   5.563132   5.085644   3.916318   2.615655
    28  H    9.673772   8.400239   7.309471   5.868237   5.202998
                   11         12         13         14         15
    11  C    0.000000
    12  C    1.414939   0.000000
    13  C    2.393877   1.372935   0.000000
    14  Br   4.180344   2.870463   1.907176   0.000000
    15  C    2.748310   2.413930   1.417485   2.874932   0.000000
    16  N    2.447139   2.826061   2.408029   4.130505   1.316528
    17  C    1.441480   2.449674   2.745980   4.650066   2.299003
    18  N    2.448659   3.710667   4.108391   6.010654   3.519136
    19  C    2.649728   4.062211   4.817320   6.706749   4.539325
    20  H    5.790020   7.175273   7.761103   9.657821   7.161949
    21  H    5.789978   7.175206   7.760702   9.657443   7.161182
    22  H    4.907468   6.227286   6.598573   8.484417   5.818359
    23  H    6.587905   7.971073   8.905439  10.759257   8.672024
    24  H    7.527129   8.757450   9.920073  11.627904  10.016345
    25  H    6.753770   7.720983   9.031790  10.511580   9.470904
    26  H    4.529163   5.324253   6.671562   8.055516   7.276825
    27  H    2.160223   1.084417   2.160460   3.033680   3.417616
    28  H    3.836526   3.392879   2.169288   2.963448   1.088217
                   16         17         18         19         20
    16  N    0.000000
    17  C    1.358118   0.000000
    18  N    2.314407   1.363085   0.000000
    19  C    3.474382   2.240482   1.309463   0.000000
    20  H    5.900690   5.049608   3.729774   3.220041   0.000000
    21  H    5.899783   5.049052   3.729009   3.219934   1.784976
    22  H    4.510191   3.874102   2.527419   2.574300   1.783822
    23  H    7.541790   6.376556   5.234153   4.140031   2.754073
    24  H    9.070354   7.763563   6.893649   5.616592   5.101146
    25  H    8.794517   7.436764   6.969032   5.679517   6.437214
    26  H    6.800478   5.481818   5.388496   4.266114   6.209314
    27  H    3.910359   3.433852   4.598869   4.723627   7.868095
    28  H    2.056207   3.276468   4.370188   5.492622   7.907330
                   21         22         23         24         25
    21  H    0.000000
    22  H    1.783772   0.000000
    23  H    2.755655   4.008550   0.000000
    24  H    5.103149   6.286594   2.479821   0.000000
    25  H    6.439165   7.251863   4.315099   2.472437   0.000000
    26  H    6.210788   6.493315   5.018343   4.311545   2.499123
    27  H    7.868275   7.066675   8.369532   8.857948   7.534441
    28  H    7.906376   6.474278   9.591211  11.036668  10.551466
                   26         27         28
    26  H    0.000000
    27  H    5.052847   0.000000
    28  H    8.364873   4.315500   0.000000
 Stoichiometry    C14H9BrN4
 Framework group  C1[X(C14H9BrN4)]
 Deg. of freedom    78
 Full point group                 C1      NOp   1
 Largest Abelian subgroup         C1      NOp   1
 Largest concise Abelian subgroup C1      NOp   1
                         Standard orientation:                         
 ---------------------------------------------------------------------
 Center     Atomic      Atomic             Coordinates (Angstroms)
 Number     Number       Type             X           Y           Z
 ---------------------------------------------------------------------
      1          6           0       -3.392330    2.735335    0.000591
      2          7           0       -2.899167    1.371554   -0.000420
      3          6           0       -3.676788    0.210058   -0.000157
      4          6           0       -5.066212    0.091295   -0.000083
      5          6           0       -5.603023   -1.197467    0.000104
      6          6           0       -4.784850   -2.339364    0.000172
      7          6           0       -3.397372   -2.215502    0.000073
      8          6           0       -2.838764   -0.935641   -0.000076
      9          6           0       -1.480510   -0.438227   -0.000156
     10          7           0       -0.324133   -1.061086   -0.000084
     11          6           0        0.766329   -0.237564   -0.000091
     12          6           0        2.059819   -0.811094   -0.000033
     13          6           0        3.145249    0.029615    0.000006
     14         35           0        4.925944   -0.653353    0.000080
     15          6           0        2.948353    1.433359   -0.000003
     16          7           0        1.759516    1.998967   -0.000060
     17          6           0        0.661216    1.200079   -0.000118
     18          7           0       -0.548575    1.828098   -0.000227
     19          6           0       -1.571208    1.010227   -0.000277
     20          1           0       -3.998748    2.928020    0.892909
     21          1           0       -3.997673    2.929850   -0.892065
     22          1           0       -2.527438    3.400340    0.001740
     23          1           0       -5.710986    0.964465   -0.000181
     24          1           0       -6.683011   -1.316912    0.000177
     25          1           0       -5.240478   -3.324906    0.000297
     26          1           0       -2.752507   -3.089073    0.000130
     27          1           0        2.156300   -1.891210   -0.000018
     28          1           0        3.813553    2.093393    0.000044
 ---------------------------------------------------------------------
 Rotational constants (GHZ):           0.9224264           0.1239663           0.1093560
 Standard basis: 6-31G(d) (6D, 7F)
 There are   318 symmetry adapted cartesian basis functions of A   symmetry.
 There are   318 symmetry adapted basis functions of A   symmetry.
   318 basis functions,   623 primitive gaussians,   318 cartesian basis functions
    78 alpha electrons       78 beta electrons
       nuclear repulsion energy      1603.6708268725 Hartrees.
 NAtoms=   28 NActive=   28 NUniq=   28 SFac= 1.00D+00 NAtFMM=   60 NAOKFM=F Big=F
 Integral buffers will be    131072 words long.
 Regular integral format.
 Two-electron integral symmetry is turned on.
 One-electron integrals computed using PRISM.
 NBasis=   318 RedAO= T EigKep=  3.29D-04  NBF=   318
 NBsUse=   318 1.00D-06 EigRej= -1.00D+00 NBFU=   318
 Initial guess from the checkpoint file:  "/home/junhkim/WORK/Review_DD/TADF-Design/data/td_dft/results/mol_324/Gau-2567072.chk"
 B after Tr=     0.000000   -0.000000    0.000000
         Rot=    1.000000   -0.000000   -0.000000    0.000000 Ang=   0.00 deg.
 Requested convergence on RMS density matrix=1.00D-08 within  32 cycles.
 Requested convergence on MAX density matrix=1.00D-06.
 Requested convergence on             energy=1.00D-06.
 No special actions if energy rises.
 SCF Done:  E(RB3LYP) =  -3329.65004817     A.U. after    1 cycles
            NFock=  1  Conv=0.64D-08     -V/T= 2.0069
 QCSCF skips out because SCF is already converged.
 DoSCS=F DFT=T ScalE2(SS,OS)=  1.000000  1.000000
 ExpMin= 1.43D-01 ExpMax= 5.74D+05 ExpMxC= 5.74D+03 IAcc=3 IRadAn=         5 AccDes= 0.00D+00
 HarFok:  IExCor=  205 AccDes= 0.00D+00 IRadAn=         5 IDoV=-2 UseB2=F ITyADJ=14
 ICtDFT= 12500011 ScaDFX=  1.000000  1.000000  1.000000  1.000000
 GSVD:  LWork=       -1280 too small for GESVD, short by        5600 words or        5600 for optimal perf.
 Range of M.O.s used for correlation:    33   318
 NBasis=   318 NAE=    78 NBE=    78 NFC=    32 NFV=     0
 NROrb=    286 NOA=    46 NOB=    46 NVA=   240 NVB=   240

 **** Warning!!: The largest alpha MO coefficient is  0.19672387D+02

 Orbital symmetries:
       Occupied  (A) (A) (A) (A) (A) (A) (A) (A) (A) (A) (A) (A)
                 (A) (A) (A) (A) (A) (A) (A) (A) (A) (A) (A) (A)
                 (A) (A) (A) (A) (A) (A) (A) (A) (A) (A) (A) (A)
                 (A) (A) (A) (A) (A) (A) (A) (A) (A) (A) (A) (A)
                 (A) (A) (A) (A) (A) (A) (A) (A) (A) (A) (A) (A)
                 (A) (A) (A) (A) (A) (A) (A) (A) (A) (A) (A) (A)
                 (A) (A) (A) (A) (A) (A)
       Virtual   (A) (A) (A) (A) (A) (A) (A) (A) (A) (A) (A) (A)
                 (A) (A) (A) (A) (A) (A) (A) (A) (A) (A) (A) (A)
                 (A) (A) (A) (A) (A) (A) (A) (A) (A) (A) (A) (A)
                 (A) (A) (A) (A) (A) (A) (A) (A) (A) (A) (A) (A)
                 (A) (A) (A) (A) (A) (A) (A) (A) (A) (A) (A) (A)
                 (A) (A) (A) (A) (A) (A) (A) (A) (A) (A) (A) (A)
                 (A) (A) (A) (A) (A) (A) (A) (A) (A) (A) (A) (A)
                 (A) (A) (A) (A) (A) (A) (A) (A) (A) (A) (A) (A)
                 (A) (A) (A) (A) (A) (A) (A) (A) (A) (A) (A) (A)
                 (A) (A) (A) (A) (A) (A) (A) (A) (A) (A) (A) (A)
                 (A) (A) (A) (A) (A) (A) (A) (A) (A) (A) (A) (A)
                 (A) (A) (A) (A) (A) (A) (A) (A) (A) (A) (A) (A)
                 (A) (A) (A) (A) (A) (A) (A) (A) (A) (A) (A) (A)
                 (A) (A) (A) (A) (A) (A) (A) (A) (A) (A) (A) (A)
                 (A) (A) (A) (A) (A) (A) (A) (A) (A) (A) (A) (A)
                 (A) (A) (A) (A) (A) (A) (A) (A) (A) (A) (A) (A)
                 (A) (A) (A) (A) (A) (A) (A) (A) (A) (A) (A) (A)
                 (A) (A) (A) (A) (A) (A) (A) (A) (A) (A) (A) (A)
                 (A) (A) (A) (A) (A) (A) (A) (A) (A) (A) (A) (A)
                 (A) (A) (A) (A) (A) (A) (A) (A) (A) (A) (A) (A)
     8 initial guesses have been made.
 Convergence on wavefunction:    0.001000000000000
 Iteration     1 Dimension     8 NMult     0 NNew      8
 CISAX will form     8 AO SS matrices at one time.
 New state      1 was old state      2
 New state      2 was old state      4
 New state      3 was old state      6
 New state      4 was old state      5
 Vector   2 SDiff=4.31D-04 TDiff=3.43D+00 assumed to be singlet.
 Vector   4 SDiff=3.76D+00 TDiff=3.64D-04 assumed to be triplet.
 Iteration     2 Dimension    12 NMult     8 NNew      4
 New state      2 was old state      4
 Iteration     3 Dimension    16 NMult    12 NNew      4
 Iteration     4 Dimension    20 NMult    16 NNew      4
 Iteration     5 Dimension    24 NMult    20 NNew      4
 No map to state      2
 Iteration     6 Dimension    28 NMult    24 NNew      4
 Iteration     7 Dimension    32 NMult    28 NNew      4
 Iteration     8 Dimension    36 NMult    32 NNew      4
 Iteration     9 Dimension    38 NMult    36 NNew      2
 Iteration    10 Dimension    40 NMult    38 NNew      2
 ***********************************************************************
 Excited states from <AA,BB:AA,BB> singles matrix:
 ***********************************************************************
 
 Ground to excited state transition densities written to RWF  633
 Ground to excited state transition electric dipole moments (Au):
       state          X           Y           Z        Dip. S.      Osc.
         1         0.0000      0.0000      0.0000      0.0000      0.0000
         2         0.5129      0.4558      0.0003      0.4708      0.0358
 Ground to excited state transition velocity dipole moments (Au):
       state          X           Y           Z        Dip. S.      Osc.
         1         0.0000      0.0000     -0.0000      0.0000      0.0000
         2        -0.0526     -0.0653     -0.0001      0.0070      0.0411
 Ground to excited state transition magnetic dipole moments (Au):
       state          X           Y           Z
         1         0.0000      0.0000      0.0000
         2        -0.0006      0.0001      0.6225
 Ground to excited state transition velocity quadrupole moments (Au):
       state          XX          YY          ZZ          XY          XZ          YZ
         1         0.0000      0.0000     -0.0000      0.0000     -0.0000      0.0000
         2        -0.2362      0.0531      0.0055      0.1588      0.0000     -0.0006
 <0|del|b> * <b|rxdel|0> + <0|del|b> * <b|delr+rdel|0>
 Rotatory Strengths (R) in cgs (10**-40 erg-esu-cm/Gauss)
       state          XX          YY          ZZ    R(velocity)    E-M Angle
         1        -0.0000      0.0000      0.0000      0.0000       90.00
         2        -0.2693      0.0440     -0.0192     -0.0815       90.00
 1/2[<0|r|b>*<b|rxdel|0> + (<0|rxdel|b>*<b|r|0>)*]
 Rotatory Strengths (R) in cgs (10**-40 erg-esu-cm/Gauss)
       state          XX          YY          ZZ     R(length)
         1        -0.0000     -0.0000     -0.0000     -0.0000
         2         0.2138     -0.0227     -0.1107      0.0268
  1/2[<0|del|b>*<b|r|0> + (<0|r|b>*<b|del|0>)*] (Au)
       state          X           Y           Z        Dip. S.   Osc.(frdel)
         1         0.0000      0.0000     -0.0000     -0.0000     -0.0000
         2        -0.0270     -0.0298     -0.0000      0.0567      0.0378

 Excitation energies and oscillator strengths:
 
 Excited State   1:      Triplet-A      2.4565 eV  504.72 nm  f=0.0000  <S**2>=2.000
      75 -> 79         0.14496
      77 -> 79         0.17926
      78 -> 79         0.64596
 This state for optimization and/or second-order correction.
 Total Energy, E(TD-HF/TD-DFT) =  -3329.55977356    
 Copying the excited state density for this state as the 1-particle RhoCI density.
 
 Excited State   2:      Singlet-A      3.0997 eV  399.98 nm  f=0.0358  <S**2>=0.000
      77 -> 79         0.11453
      78 -> 79         0.68813
 SavETr:  write IOETrn=   770 NScale= 10 NData=  16 NLR=1 NState=    2 LETran=      46.

 **********************************************************************

            Population analysis using the SCF Density.

 **********************************************************************

 Orbital symmetries:
       Occupied  (A) (A) (A) (A) (A) (A) (A) (A) (A) (A) (A) (A)
                 (A) (A) (A) (A) (A) (A) (A) (A) (A) (A) (A) (A)
                 (A) (A) (A) (A) (A) (A) (A) (A) (A) (A) (A) (A)
                 (A) (A) (A) (A) (A) (A) (A) (A) (A) (A) (A) (A)
                 (A) (A) (A) (A) (A) (A) (A) (A) (A) (A) (A) (A)
                 (A) (A) (A) (A) (A) (A) (A) (A) (A) (A) (A) (A)
                 (A) (A) (A) (A) (A) (A)
       Virtual   (A) (A) (A) (A) (A) (A) (A) (A) (A) (A) (A) (A)
                 (A) (A) (A) (A) (A) (A) (A) (A) (A) (A) (A) (A)
                 (A) (A) (A) (A) (A) (A) (A) (A) (A) (A) (A) (A)
                 (A) (A) (A) (A) (A) (A) (A) (A) (A) (A) (A) (A)
                 (A) (A) (A) (A) (A) (A) (A) (A) (A) (A) (A) (A)
                 (A) (A) (A) (A) (A) (A) (A) (A) (A) (A) (A) (A)
                 (A) (A) (A) (A) (A) (A) (A) (A) (A) (A) (A) (A)
                 (A) (A) (A) (A) (A) (A) (A) (A) (A) (A) (A) (A)
                 (A) (A) (A) (A) (A) (A) (A) (A) (A) (A) (A) (A)
                 (A) (A) (A) (A) (A) (A) (A) (A) (A) (A) (A) (A)
                 (A) (A) (A) (A) (A) (A) (A) (A) (A) (A) (A) (A)
                 (A) (A) (A) (A) (A) (A) (A) (A) (A) (A) (A) (A)
                 (A) (A) (A) (A) (A) (A) (A) (A) (A) (A) (A) (A)
                 (A) (A) (A) (A) (A) (A) (A) (A) (A) (A) (A) (A)
                 (A) (A) (A) (A) (A) (A) (A) (A) (A) (A) (A) (A)
                 (A) (A) (A) (A) (A) (A) (A) (A) (A) (A) (A) (A)
                 (A) (A) (A) (A) (A) (A) (A) (A) (A) (A) (A) (A)
                 (A) (A) (A) (A) (A) (A) (A) (A) (A) (A) (A) (A)
                 (A) (A) (A) (A) (A) (A) (A) (A) (A) (A) (A) (A)
                 (A) (A) (A) (A) (A) (A) (A) (A) (A) (A) (A) (A)
 The electronic state is 1-A.
 Alpha  occ. eigenvalues -- -482.91710 -61.87881 -56.40021 -56.39601 -56.39594
 Alpha  occ. eigenvalues --  -14.39771 -14.35467 -14.34619 -14.33956 -10.27409
 Alpha  occ. eigenvalues --  -10.26482 -10.25478 -10.24643 -10.24507 -10.24226
 Alpha  occ. eigenvalues --  -10.24118 -10.23735 -10.21928 -10.20920 -10.20776
 Alpha  occ. eigenvalues --  -10.20771 -10.20643 -10.19915  -8.59021  -6.54429
 Alpha  occ. eigenvalues --   -6.53137  -6.53108  -2.65998  -2.65630  -2.65609
 Alpha  occ. eigenvalues --   -2.64577  -2.64577  -1.02501  -0.98109  -0.94320
 Alpha  occ. eigenvalues --   -0.91671  -0.86258  -0.83630  -0.81131  -0.77434
 Alpha  occ. eigenvalues --   -0.76371  -0.74400  -0.71710  -0.68254  -0.65030
 Alpha  occ. eigenvalues --   -0.63590  -0.61263  -0.59861  -0.56816  -0.55156
 Alpha  occ. eigenvalues --   -0.52425  -0.51671  -0.48892  -0.48746  -0.48240
 Alpha  occ. eigenvalues --   -0.46783  -0.45402  -0.44695  -0.44692  -0.43452
 Alpha  occ. eigenvalues --   -0.42037  -0.41382  -0.41061  -0.38965  -0.37840
 Alpha  occ. eigenvalues --   -0.37481  -0.36505  -0.35919  -0.33750  -0.32169
 Alpha  occ. eigenvalues --   -0.30198  -0.29854  -0.29245  -0.28159  -0.26063
 Alpha  occ. eigenvalues --   -0.24765  -0.23829  -0.22129
 Alpha virt. eigenvalues --   -0.08623  -0.03318  -0.01279   0.00024   0.00320
 Alpha virt. eigenvalues --    0.01380   0.08385   0.08846   0.10069   0.13390
 Alpha virt. eigenvalues --    0.13749   0.14413   0.14603   0.14797   0.15729
 Alpha virt. eigenvalues --    0.16918   0.16931   0.17828   0.18725   0.20230
 Alpha virt. eigenvalues --    0.21295   0.22408   0.23482   0.24851   0.26502
 Alpha virt. eigenvalues --    0.27524   0.27891   0.30704   0.31341   0.33247
 Alpha virt. eigenvalues --    0.34590   0.35637   0.36850   0.37941   0.40454
 Alpha virt. eigenvalues --    0.41003   0.42327   0.45805   0.45920   0.46142
 Alpha virt. eigenvalues --    0.46864   0.47203   0.47696   0.47903   0.48514
 Alpha virt. eigenvalues --    0.48759   0.49783   0.51622   0.52271   0.52663
 Alpha virt. eigenvalues --    0.54316   0.54621   0.55008   0.55951   0.56411
 Alpha virt. eigenvalues --    0.57711   0.58183   0.59365   0.59609   0.59771
 Alpha virt. eigenvalues --    0.60190   0.60418   0.61781   0.62734   0.64157
 Alpha virt. eigenvalues --    0.64225   0.65385   0.65453   0.68283   0.68617
 Alpha virt. eigenvalues --    0.69487   0.71717   0.72899   0.73376   0.73853
 Alpha virt. eigenvalues --    0.74083   0.78462   0.78770   0.79311   0.80198
 Alpha virt. eigenvalues --    0.80676   0.81314   0.82734   0.82858   0.83165
 Alpha virt. eigenvalues --    0.83565   0.85116   0.85686   0.86184   0.88259
 Alpha virt. eigenvalues --    0.88303   0.89958   0.90871   0.92249   0.92287
 Alpha virt. eigenvalues --    0.94195   0.94251   0.95126   0.96180   0.96718
 Alpha virt. eigenvalues --    0.98278   1.01288   1.02693   1.05763   1.07852
 Alpha virt. eigenvalues --    1.09837   1.12205   1.14583   1.16782   1.17262
 Alpha virt. eigenvalues --    1.19201   1.19651   1.21430   1.23648   1.24568
 Alpha virt. eigenvalues --    1.25183   1.26739   1.30151   1.30345   1.31916
 Alpha virt. eigenvalues --    1.31967   1.33572   1.36270   1.38491   1.39243
 Alpha virt. eigenvalues --    1.41696   1.43486   1.43695   1.44932   1.46298
 Alpha virt. eigenvalues --    1.47750   1.48298   1.48747   1.49415   1.51252
 Alpha virt. eigenvalues --    1.53612   1.57004   1.58929   1.63315   1.65320
 Alpha virt. eigenvalues --    1.67654   1.70440   1.72359   1.74023   1.76229
 Alpha virt. eigenvalues --    1.77391   1.79243   1.79341   1.80090   1.82960
 Alpha virt. eigenvalues --    1.84809   1.85096   1.85766   1.87651   1.88380
 Alpha virt. eigenvalues --    1.91214   1.91814   1.95153   1.95376   1.96290
 Alpha virt. eigenvalues --    1.99066   2.01034   2.02694   2.03071   2.05109
 Alpha virt. eigenvalues --    2.08665   2.10211   2.11846   2.12956   2.13548
 Alpha virt. eigenvalues --    2.16508   2.17150   2.18547   2.20566   2.20908
 Alpha virt. eigenvalues --    2.21326   2.23916   2.26020   2.26541   2.27657
 Alpha virt. eigenvalues --    2.31236   2.33133   2.33305   2.34602   2.36990
 Alpha virt. eigenvalues --    2.37251   2.39780   2.41969   2.43859   2.47329
 Alpha virt. eigenvalues --    2.51175   2.51384   2.53461   2.58482   2.58943
 Alpha virt. eigenvalues --    2.60874   2.62825   2.63329   2.64885   2.65147
 Alpha virt. eigenvalues --    2.67199   2.67414   2.69785   2.73845   2.75736
 Alpha virt. eigenvalues --    2.77551   2.79665   2.80886   2.83847   2.86298
 Alpha virt. eigenvalues --    2.88901   2.96819   2.99247   3.02752   3.06538
 Alpha virt. eigenvalues --    3.22206   3.26094   3.37726   3.44085   3.53625
 Alpha virt. eigenvalues --    4.03128   4.04880   4.06955   4.07664   4.11353
 Alpha virt. eigenvalues --    4.14584   4.17124   4.19517   4.25899   4.30253
 Alpha virt. eigenvalues --    4.36298   4.41349   4.42202   4.51204   4.63467
 Alpha virt. eigenvalues --    4.67659   4.77094   4.85867   8.60032  72.78931
          Condensed to atoms (all electrons):
               1          2          3          4          5          6
     1  C    4.998528   0.289779  -0.042875  -0.002987  -0.000129   0.000009
     2  N    0.289779   7.152241   0.273761  -0.093028   0.005607  -0.000253
     3  C   -0.042875   0.273761   4.700802   0.485930   0.002807  -0.041562
     4  C   -0.002987  -0.093028   0.485930   5.077733   0.512646  -0.026519
     5  C   -0.000129   0.005607   0.002807   0.512646   4.863511   0.526485
     6  C    0.000009  -0.000253  -0.041562  -0.026519   0.526485   4.911640
     7  C   -0.000073   0.009529  -0.067947  -0.054287  -0.023386   0.487566
     8  C    0.004428  -0.031448   0.456845  -0.054482  -0.038961   0.000897
     9  C    0.006758  -0.083327   0.022219   0.014715  -0.000087   0.009097
    10  N   -0.000095   0.006489   0.008061  -0.000126   0.000005   0.000169
    11  C   -0.000020   0.001087   0.000058   0.000006   0.000000   0.000004
    12  C    0.000000   0.000010   0.000006  -0.000000  -0.000000  -0.000000
    13  C   -0.000000   0.000000  -0.000000   0.000000  -0.000000   0.000000
    14  Br  -0.000000  -0.000000   0.000000  -0.000000  -0.000000  -0.000000
    15  C    0.000000   0.000000  -0.000000   0.000000   0.000000  -0.000000
    16  N    0.000005  -0.000046  -0.000001  -0.000000   0.000000  -0.000000
    17  C    0.000058   0.002395  -0.000247  -0.000002   0.000000  -0.000000
    18  N   -0.006854  -0.080201  -0.000063  -0.000178   0.000002   0.000000
    19  C   -0.036050   0.280834  -0.092834   0.002776  -0.000141  -0.000364
    20  H    0.374903  -0.040808  -0.000622   0.002544   0.000000  -0.000001
    21  H    0.374934  -0.040804  -0.000621   0.002533   0.000000  -0.000001
    22  H    0.375754  -0.032740   0.001965   0.000068   0.000001  -0.000000
    23  H    0.004568  -0.008157  -0.035627   0.351836  -0.040873   0.004114
    24  H   -0.000001  -0.000106   0.002713  -0.039007   0.359351  -0.039019
    25  H   -0.000000   0.000004   0.001011   0.004337  -0.039470   0.360641
    26  H    0.000003  -0.000097   0.004806   0.000375   0.004330  -0.045466
    27  H    0.000000  -0.000000  -0.000000  -0.000000   0.000000   0.000000
    28  H    0.000000  -0.000000  -0.000000  -0.000000   0.000000  -0.000000
               7          8          9         10         11         12
     1  C   -0.000073   0.004428   0.006758  -0.000095  -0.000020   0.000000
     2  N    0.009529  -0.031448  -0.083327   0.006489   0.001087   0.000010
     3  C   -0.067947   0.456845   0.022219   0.008061   0.000058   0.000006
     4  C   -0.054287  -0.054482   0.014715  -0.000126   0.000006  -0.000000
     5  C   -0.023386  -0.038961  -0.000087   0.000005   0.000000  -0.000000
     6  C    0.487566   0.000897   0.009097   0.000169   0.000004  -0.000000
     7  C    5.096658   0.497762  -0.104307  -0.005058  -0.000061  -0.000002
     8  C    0.497762   4.949057   0.236500  -0.088852   0.001018  -0.000586
     9  C   -0.104307   0.236500   5.085662   0.459430  -0.045992  -0.000435
    10  N   -0.005058  -0.088852   0.459430   7.054121   0.368120  -0.063343
    11  C   -0.000061   0.001018  -0.045992   0.368120   4.797757   0.444849
    12  C   -0.000002  -0.000586  -0.000435  -0.063343   0.444849   5.128041
    13  C   -0.000000   0.000004  -0.000170   0.005243  -0.005856   0.505505
    14  Br  -0.000000  -0.000000   0.000000  -0.000081   0.005000  -0.057667
    15  C    0.000000  -0.000000   0.000105   0.000070  -0.027206  -0.044973
    16  N   -0.000000   0.000024   0.000464   0.005291  -0.064305  -0.042464
    17  C    0.000009   0.004144  -0.027301  -0.059475   0.377235  -0.070674
    18  N   -0.000073   0.008356  -0.056755  -0.018824  -0.097891   0.003834
    19  C    0.016410  -0.020991   0.273095  -0.095676  -0.010171   0.002604
    20  H   -0.000008  -0.000127  -0.000030   0.000002   0.000001  -0.000000
    21  H   -0.000007  -0.000127  -0.000031   0.000002   0.000001  -0.000000
    22  H    0.000007  -0.000041   0.000393  -0.000012   0.000037  -0.000000
    23  H    0.000474   0.004381  -0.000243   0.000001  -0.000000   0.000000
    24  H    0.004189   0.001022   0.000010  -0.000000   0.000000  -0.000000
    25  H   -0.036800   0.001702  -0.000207  -0.000000  -0.000000  -0.000000
    26  H    0.358359  -0.035071  -0.008204   0.003756  -0.000015  -0.000003
    27  H    0.000005  -0.000011   0.000583   0.000033  -0.032072   0.349668
    28  H   -0.000000   0.000000   0.000002   0.000009   0.000302   0.003769
              13         14         15         16         17         18
     1  C   -0.000000  -0.000000   0.000000   0.000005   0.000058  -0.006854
     2  N    0.000000  -0.000000   0.000000  -0.000046   0.002395  -0.080201
     3  C   -0.000000   0.000000  -0.000000  -0.000001  -0.000247  -0.000063
     4  C    0.000000  -0.000000   0.000000  -0.000000  -0.000002  -0.000178
     5  C   -0.000000  -0.000000   0.000000   0.000000   0.000000   0.000002
     6  C    0.000000  -0.000000  -0.000000  -0.000000  -0.000000   0.000000
     7  C   -0.000000  -0.000000   0.000000  -0.000000   0.000009  -0.000073
     8  C    0.000004  -0.000000  -0.000000   0.000024   0.004144   0.008356
     9  C   -0.000170   0.000000   0.000105   0.000464  -0.027301  -0.056755
    10  N    0.005243  -0.000081   0.000070   0.005291  -0.059475  -0.018824
    11  C   -0.005856   0.005000  -0.027206  -0.064305   0.377235  -0.097891
    12  C    0.505505  -0.057667  -0.044973  -0.042464  -0.070674   0.003834
    13  C    4.937446   0.244791   0.417379  -0.013092  -0.032542   0.000252
    14  Br   0.244791  34.964790  -0.045986   0.004221   0.000451   0.000007
    15  C    0.417379  -0.045986   4.875554   0.459516  -0.053235   0.003030
    16  N   -0.013092   0.004221   0.459516   6.876455   0.378157  -0.085902
    17  C   -0.032542   0.000451  -0.053235   0.378157   4.710802   0.398494
    18  N    0.000252   0.000007   0.003030  -0.085902   0.398494   7.035018
    19  C   -0.000001  -0.000001   0.000002  -0.000820  -0.049419   0.423028
    20  H    0.000000  -0.000000  -0.000000  -0.000000  -0.000000   0.000359
    21  H    0.000000  -0.000000  -0.000000  -0.000000  -0.000000   0.000359
    22  H   -0.000000  -0.000000   0.000001  -0.000035   0.000031   0.016160
    23  H   -0.000000   0.000000  -0.000000  -0.000000  -0.000000   0.000001
    24  H    0.000000  -0.000000  -0.000000  -0.000000   0.000000  -0.000000
    25  H    0.000000   0.000000   0.000000  -0.000000  -0.000000  -0.000000
    26  H   -0.000000  -0.000000   0.000000  -0.000000   0.000002   0.000000
    27  H   -0.046308  -0.003364   0.005069  -0.000609   0.005488  -0.000124
    28  H   -0.066962   0.003210   0.379480  -0.050989   0.004256  -0.000074
              19         20         21         22         23         24
     1  C   -0.036050   0.374903   0.374934   0.375754   0.004568  -0.000001
     2  N    0.280834  -0.040808  -0.040804  -0.032740  -0.008157  -0.000106
     3  C   -0.092834  -0.000622  -0.000621   0.001965  -0.035627   0.002713
     4  C    0.002776   0.002544   0.002533   0.000068   0.351836  -0.039007
     5  C   -0.000141   0.000000   0.000000   0.000001  -0.040873   0.359351
     6  C   -0.000364  -0.000001  -0.000001  -0.000000   0.004114  -0.039019
     7  C    0.016410  -0.000008  -0.000007   0.000007   0.000474   0.004189
     8  C   -0.020991  -0.000127  -0.000127  -0.000041   0.004381   0.001022
     9  C    0.273095  -0.000030  -0.000031   0.000393  -0.000243   0.000010
    10  N   -0.095676   0.000002   0.000002  -0.000012   0.000001  -0.000000
    11  C   -0.010171   0.000001   0.000001   0.000037  -0.000000   0.000000
    12  C    0.002604  -0.000000  -0.000000  -0.000000   0.000000  -0.000000
    13  C   -0.000001   0.000000   0.000000  -0.000000  -0.000000   0.000000
    14  Br  -0.000001  -0.000000  -0.000000  -0.000000   0.000000  -0.000000
    15  C    0.000002  -0.000000  -0.000000   0.000001  -0.000000  -0.000000
    16  N   -0.000820  -0.000000  -0.000000  -0.000035  -0.000000  -0.000000
    17  C   -0.049419  -0.000000  -0.000000   0.000031  -0.000000   0.000000
    18  N    0.423028   0.000359   0.000359   0.016160   0.000001  -0.000000
    19  C    4.752827   0.000971   0.000969  -0.002368  -0.000008   0.000001
    20  H    0.000971   0.555230  -0.041738  -0.023405   0.000656  -0.000000
    21  H    0.000969  -0.041738   0.555230  -0.023440   0.000650  -0.000000
    22  H   -0.002368  -0.023405  -0.023440   0.473711  -0.000047  -0.000000
    23  H   -0.000008   0.000656   0.000650  -0.000047   0.583694  -0.005052
    24  H    0.000001  -0.000000  -0.000000  -0.000000  -0.005052   0.582688
    25  H    0.000005   0.000000   0.000000  -0.000000  -0.000157  -0.005153
    26  H    0.000098  -0.000000  -0.000000  -0.000000   0.000016  -0.000165
    27  H    0.000038  -0.000000  -0.000000   0.000000   0.000000  -0.000000
    28  H   -0.000006  -0.000000  -0.000000  -0.000000  -0.000000  -0.000000
              25         26         27         28
     1  C   -0.000000   0.000003   0.000000   0.000000
     2  N    0.000004  -0.000097  -0.000000  -0.000000
     3  C    0.001011   0.004806  -0.000000  -0.000000
     4  C    0.004337   0.000375  -0.000000  -0.000000
     5  C   -0.039470   0.004330   0.000000   0.000000
     6  C    0.360641  -0.045466   0.000000  -0.000000
     7  C   -0.036800   0.358359   0.000005  -0.000000
     8  C    0.001702  -0.035071  -0.000011   0.000000
     9  C   -0.000207  -0.008204   0.000583   0.000002
    10  N   -0.000000   0.003756   0.000033   0.000009
    11  C   -0.000000  -0.000015  -0.032072   0.000302
    12  C   -0.000000  -0.000003   0.349668   0.003769
    13  C    0.000000  -0.000000  -0.046308  -0.066962
    14  Br   0.000000  -0.000000  -0.003364   0.003210
    15  C    0.000000   0.000000   0.005069   0.379480
    16  N   -0.000000  -0.000000  -0.000609  -0.050989
    17  C   -0.000000   0.000002   0.005488   0.004256
    18  N   -0.000000   0.000000  -0.000124  -0.000074
    19  C    0.000005   0.000098   0.000038  -0.000006
    20  H    0.000000  -0.000000  -0.000000  -0.000000
    21  H    0.000000  -0.000000  -0.000000  -0.000000
    22  H   -0.000000  -0.000000   0.000000  -0.000000
    23  H   -0.000157   0.000016   0.000000  -0.000000
    24  H   -0.005153  -0.000165  -0.000000  -0.000000
    25  H    0.582004  -0.004284   0.000000   0.000000
    26  H   -0.004284   0.565461   0.000005  -0.000000
    27  H    0.000000   0.000005   0.546342  -0.000143
    28  H    0.000000  -0.000000  -0.000143   0.560689
 Mulliken charges:
               1
     1  C   -0.340644
     2  N   -0.610722
     3  C    0.321416
     4  C   -0.184884
     5  C   -0.131698
     6  C   -0.147435
     7  C   -0.178961
     8  C    0.104557
     9  C    0.218055
    10  N   -0.579259
    11  C    0.288112
    12  C   -0.158139
    13  C    0.054311
    14  Br  -0.115374
    15  C    0.031192
    16  N   -0.465872
    17  C    0.411372
    18  N   -0.541964
    19  C    0.555190
    20  H    0.172075
    21  H    0.172094
    22  H    0.213961
    23  H    0.139772
    24  H    0.138530
    25  H    0.136367
    26  H    0.156092
    27  H    0.175399
    28  H    0.166457
 Sum of Mulliken charges =  -0.00000
 Mulliken charges with hydrogens summed into heavy atoms:
               1
     1  C    0.217486
     2  N   -0.610722
     3  C    0.321416
     4  C   -0.045112
     5  C    0.006832
     6  C   -0.011068
     7  C   -0.022869
     8  C    0.104557
     9  C    0.218055
    10  N   -0.579259
    11  C    0.288112
    12  C    0.017260
    13  C    0.054311
    14  Br  -0.115374
    15  C    0.197650
    16  N   -0.465872
    17  C    0.411372
    18  N   -0.541964
    19  C    0.555190
 Electronic spatial extent (au):  <R**2>=           8550.2564
 Charge=              0.0000 electrons
 Dipole moment (field-independent basis, Debye):
    X=             -4.1909    Y=             -0.3400    Z=              0.0012  Tot=              4.2047
 Quadrupole moment (field-independent basis, Debye-Ang):
   XX=            -99.7745   YY=           -117.1071   ZZ=           -121.6338
   XY=             -5.0953   XZ=             -0.0037   YZ=              0.0027
 Traceless Quadrupole moment (field-independent basis, Debye-Ang):
   XX=             13.0640   YY=             -4.2686   ZZ=             -8.7953
   XY=             -5.0953   XZ=             -0.0037   YZ=              0.0027
 Octapole moment (field-independent basis, Debye-Ang**2):
  XXX=             40.1325  YYY=            -35.5705  ZZZ=              0.0022  XYY=             14.4356
  XXY=             12.3287  XXZ=              0.0152  XZZ=             59.5698  YZZ=             -0.0495
  YYZ=              0.0111  XYZ=             -0.0035
 Hexadecapole moment (field-independent basis, Debye-Ang**3):
 XXXX=          -7799.1631 YYYY=          -1494.8373 ZZZZ=           -128.9089 XXXY=           -109.3289
 XXXZ=             -0.0443 YYYX=           -133.4033 YYYZ=              0.0133 ZZZX=              0.0119
 ZZZY=             -0.0011 XXYY=          -1491.6470 XXZZ=          -1521.5498 YYZZ=           -287.3590
 XXYZ=              0.0013 YYXZ=             -0.0158 ZZXY=            -58.4690
 N-N= 1.603670826872D+03 E-N=-1.109892878323D+04  KE= 3.306856342389D+03
 1\1\GINC-CNODE11\SP\RB3LYP TD-FC\6-31G(d)\C14H9Br1N4\JUNHKIM\19-Jan-20
 26\0\\# b3lyp/6-31g* TD=(Nstates=1,50-50) Geom=Check Guess=Read SCF=XQ
 C\\TD-DFT calculation\\0,1\C,0,-1.7683914982,2.5822751845,0.4763459054
 \N,0,-1.2981700293,1.2184159529,0.3283945965\C,0,-2.0951610661,0.07703
 03347,0.2026512425\C,0,-3.4863774142,-0.0174803225,0.1889062231\C,0,-4
 .044727633,-1.2894426111,0.0495140666\C,0,-3.2458244322,-2.4383724071,
 -0.0731678179\C,0,-1.8564686,-2.3387576732,-0.0588982165\C,0,-1.276474
 1325,-1.0760164838,0.0795861428\C,0,0.0899273728,-0.6045943325,0.13419
 95393\N,0,1.2356911442,-1.2433289609,0.0678227629\C,0,2.3398088304,-0.
 4432213361,0.1575400375\C,0,3.6234923912,-1.0352441755,0.0965747083\C,
 0,4.722867583,-0.217973279,0.1881904851\Br,0,6.4918509552,-0.927037564
 5,0.1157685121\C,0,4.5495433025,1.1806980988,0.3396557483\N,0,3.370364
 5612,1.7630728137,0.3998403491\C,0,2.258823358,0.9875918367,0.31271409
 17\N,0,1.0597405894,1.6323649283,0.3795727166\C,0,0.0235369282,0.83673
 10741,0.2904584324\H,0,-2.373756052,2.6877317711,1.3838230505\H,0,-2.3
 681174882,2.8822736156,-0.3905107662\H,0,-0.8924723556,3.2285131513,0.
 549930973\H,0,-4.1164132115,0.8613967597,0.2826573702\H,0,-5.126563910
 5,-1.3898758551,0.0359155982\H,0,-3.7179167517,-3.4103008218,-0.179813
 8536\H,0,-1.2263483045,-3.2180306661,-0.1527341299\H,0,3.7018440563,-2
 .110525624,-0.0200017208\H,0,5.4256898073,1.822108592,0.4116079524\\Ve
 rsion=ES64L-G16RevB.01\State=1-A\HF=-3329.6500482\RMSD=6.443e-09\PG=C0
 1 [X(C14H9Br1N4)]\\@


 Change starts when someone sees the next step.
                            -- William Drayton
 Job cpu time:       0 days  0 hours 30 minutes 50.3 seconds.
 Elapsed time:       0 days  0 hours  1 minutes 55.9 seconds.
 File lengths (MBytes):  RWF=    555 Int=      0 D2E=      0 Chk=     67 Scr=      2
 Normal termination of Gaussian 16 at Mon Jan 19 00:04:50 2026.
