 Entering Gaussian System, Link 0=g16
 Initial command:
 /appl/Gaussian16/AVX_revB01/g16/l1.exe "/home/junhkim/WORK/Review_DD/TADF-Design/data/td_dft/results/mol_1117/Gau-2709769.inp" -scrdir="/home/junhkim/WORK/Review_DD/TADF-Design/data/td_dft/results/mol_1117/"
 Entering Link 1 = /appl/Gaussian16/AVX_revB01/g16/l1.exe PID=   2709771.
  
 Copyright (c) 1988-2017, Gaussian, Inc.  All Rights Reserved.
  
 This is part of the Gaussian(R) 16 program.  It is based on
 the Gaussian(R) 09 system (copyright 2009, Gaussian, Inc.),
 the Gaussian(R) 03 system (copyright 2003, Gaussian, Inc.),
 the Gaussian(R) 98 system (copyright 1998, Gaussian, Inc.),
 the Gaussian(R) 94 system (copyright 1995, Gaussian, Inc.),
 the Gaussian 92(TM) system (copyright 1992, Gaussian, Inc.),
 the Gaussian 90(TM) system (copyright 1990, Gaussian, Inc.),
 the Gaussian 88(TM) system (copyright 1988, Gaussian, Inc.),
 the Gaussian 86(TM) system (copyright 1986, Carnegie Mellon
 University), and the Gaussian 82(TM) system (copyright 1983,
 Carnegie Mellon University). Gaussian is a federally registered
 trademark of Gaussian, Inc.
  
 This software contains proprietary and confidential information,
 including trade secrets, belonging to Gaussian, Inc.
  
 This software is provided under written license and may be
 used, copied, transmitted, or stored only in accord with that
 written license.
  
 The following legend is applicable only to US Government
 contracts under FAR:
  
                    RESTRICTED RIGHTS LEGEND
  
 Use, reproduction and disclosure by the US Government is
 subject to restrictions as set forth in subparagraphs (a)
 and (c) of the Commercial Computer Software - Restricted
 Rights clause in FAR 52.227-19.
  
 Gaussian, Inc.
 340 Quinnipiac St., Bldg. 40, Wallingford CT 06492
  
  
 ---------------------------------------------------------------
 Warning -- This program may not be used in any manner that
 competes with the business of Gaussian, Inc. or will provide
 assistance to any competitor of Gaussian, Inc.  The licensee
 of this program is prohibited from giving any competitor of
 Gaussian, Inc. access to this program.  By using this program,
 the user acknowledges that Gaussian, Inc. is engaged in the
 business of creating and licensing software in the field of
 computational chemistry and represents and warrants to the
 licensee that it is not a competitor of Gaussian, Inc. and that
 it will not use this program in any manner prohibited above.
 ---------------------------------------------------------------
  

 Cite this work as:
 Gaussian 16, Revision B.01,
 M. J. Frisch, G. W. Trucks, H. B. Schlegel, G. E. Scuseria, 
 M. A. Robb, J. R. Cheeseman, G. Scalmani, V. Barone, 
 G. A. Petersson, H. Nakatsuji, X. Li, M. Caricato, A. V. Marenich, 
 J. Bloino, B. G. Janesko, R. Gomperts, B. Mennucci, H. P. Hratchian, 
 J. V. Ortiz, A. F. Izmaylov, J. L. Sonnenberg, D. Williams-Young, 
 F. Ding, F. Lipparini, F. Egidi, J. Goings, B. Peng, A. Petrone, 
 T. Henderson, D. Ranasinghe, V. G. Zakrzewski, J. Gao, N. Rega, 
 G. Zheng, W. Liang, M. Hada, M. Ehara, K. Toyota, R. Fukuda, 
 J. Hasegawa, M. Ishida, T. Nakajima, Y. Honda, O. Kitao, H. Nakai, 
 T. Vreven, K. Throssell, J. A. Montgomery, Jr., J. E. Peralta, 
 F. Ogliaro, M. J. Bearpark, J. J. Heyd, E. N. Brothers, K. N. Kudin, 
 V. N. Staroverov, T. A. Keith, R. Kobayashi, J. Normand, 
 K. Raghavachari, A. P. Rendell, J. C. Burant, S. S. Iyengar, 
 J. Tomasi, M. Cossi, J. M. Millam, M. Klene, C. Adamo, R. Cammi, 
 J. W. Ochterski, R. L. Martin, K. Morokuma, O. Farkas, 
 J. B. Foresman, and D. J. Fox, Gaussian, Inc., Wallingford CT, 2016.
 
 ******************************************
 Gaussian 16:  ES64L-G16RevB.01 20-Dec-2017
                19-Jan-2026 
 ******************************************
 %mem=60GB
 %chk=opt.chk
 %nprocshared=16
 Will use up to   16 processors via shared memory.
 ---------------------------
 #P b3lyp/6-31g* opt SCF=XQC
 ---------------------------
 1/18=20,19=15,26=3,38=1/1,3;
 2/9=110,12=2,17=6,18=5,40=1/2;
 3/5=1,6=6,7=1,11=2,25=1,30=1,71=1,74=-5/1,2,3;
 4//1;
 5/5=2,8=3,13=1,38=5/2,8;
 6/7=2,8=2,9=2,10=2,28=1/1;
 7//1,2,3,16;
 1/18=20,19=15,26=3/3(2);
 2/9=110/2;
 99//99;
 2/9=110/2;
 3/5=1,6=6,7=1,11=2,25=1,30=1,71=1,74=-5/1,2,3;
 4/5=5,16=3,69=1/1;
 5/5=2,8=3,13=1,38=5/2,8;
 7//1,2,3,16;
 1/18=20,19=15,26=3/3(-5);
 2/9=110/2;
 6/7=2,8=2,9=2,10=2,19=2,28=1/1;
 99/9=1/99;
 Leave Link    1 at Mon Jan 19 14:12:50 2026, MaxMem=  8053063680 cpu:               0.7 elap:               0.1
 (Enter /appl/Gaussian16/AVX_revB01/g16/l101.exe)
 ------------------------------
 Gaussian input prepared by ASE
 ------------------------------
 Symbolic Z-matrix:
 Charge =  0 Multiplicity = 1
 C                    -6.66201  -2.68814   0.23586 
 C                    -5.27674  -2.11917   0.1711 
 C                    -4.2481   -2.8143   -0.45201 
 C                    -2.96648  -2.30119  -0.4942 
 C                    -2.66698  -1.07095   0.08719 
 C                    -1.30099  -0.52155   0.04125 
 C                    -1.13176   0.83504  -0.21856 
 C                     0.06863   1.51846  -0.30386 
 C                     0.14401   2.96189  -0.50851 
 C                    -0.80658   3.81692   0.05371 
 C                    -0.71598   5.18419  -0.11657 
 C                     0.32783   5.73286  -0.8444 
 C                     1.2761    4.89726  -1.40953 
 C                     1.18435   3.52796  -1.24459 
 P                     1.54206   0.62136  -0.05399 
 O                     2.7069    0.64894  -1.2132 
 C                     3.94311   1.1809   -0.8082 
 C                     3.70231   1.89406   0.54646 
 O                     2.46787   1.43321   1.03524 
 C                     1.11563  -1.0397    0.26003 
 C                     2.1795   -2.0253    0.42687 
 C                     2.0538   -3.31312  -0.09876 
 C                     3.07414  -4.23379   0.0353 
 C                     4.2468   -3.8912    0.68929 
 C                     4.38452  -2.61879   1.21736 
 C                     3.36232  -1.69729   1.08875 
 C                    -0.22625  -1.37833   0.25965 
 C                    -3.70073  -0.37639   0.71166 
 C                    -4.98116  -0.89262   0.75223 
 H                    -6.86153  -3.32279  -0.62482 
 H                    -6.77508  -3.29527   1.13519 
 H                    -7.40617  -1.89546   0.27025 
 H                    -4.45667  -3.76837  -0.91643 
 H                    -2.1897   -2.85172  -1.00536 
 H                    -2.02753   1.41501  -0.40346 
 H                    -1.60953   3.40228   0.64469 
 H                    -1.45973   5.82954   0.32833 
 H                     0.4004    6.80286  -0.9709 
 H                     2.0886    5.31539  -1.9874 
 H                     1.90383   2.88232  -1.72565 
 H                     4.66331   0.36368  -0.6984 
 H                     4.30114   1.8803   -1.56868 
 H                     4.48801   1.65447   1.26825 
 H                     3.64969   2.97953   0.41383 
 H                     1.15506  -3.58269  -0.6331 
 H                     2.95931  -5.22454  -0.38043 
 H                     5.04593  -4.61088   0.78746 
 H                     5.29184  -2.34527   1.73782 
 H                     3.46171  -0.72218   1.54167 
 H                    -0.45962  -2.41212   0.48256 
 H                    -3.49378   0.571     1.18849 
 H                    -5.76561  -0.33633   1.24683 
 
 ITRead=  0  0  0  0  0  0  0  0  0  0  0  0  0  0  0  0  0  0  0  0
 ITRead=  0  0  0  0  0  0  0  0  0  0  0  0  0  0  0  0  0  0  0  0
 ITRead=  0  0  0  0  0  0  0  0  0  0  0  0
 MicOpt= -1 -1 -1 -1 -1 -1 -1 -1 -1 -1 -1 -1 -1 -1 -1 -1 -1 -1 -1 -1
 MicOpt= -1 -1 -1 -1 -1 -1 -1 -1 -1 -1 -1 -1 -1 -1 -1 -1 -1 -1 -1 -1
 MicOpt= -1 -1 -1 -1 -1 -1 -1 -1 -1 -1 -1 -1
 NAtoms=     52 NQM=       52 NQMF=       0 NMMI=      0 NMMIF=      0
                NMic=       0 NMicF=      0.
                    Isotopes and Nuclear Properties:
 (Nuclear quadrupole moments (NQMom) in fm**2, nuclear magnetic moments (NMagM)
  in nuclear magnetons)

  Atom         1           2           3           4           5           6           7           8           9          10
 IAtWgt=          12          12          12          12          12          12          12          12          12          12
 AtmWgt=  12.0000000  12.0000000  12.0000000  12.0000000  12.0000000  12.0000000  12.0000000  12.0000000  12.0000000  12.0000000
 NucSpn=           0           0           0           0           0           0           0           0           0           0
 AtZEff=  -0.0000000  -0.0000000  -0.0000000  -0.0000000  -0.0000000  -0.0000000  -0.0000000  -0.0000000  -0.0000000  -0.0000000
 NQMom=    0.0000000   0.0000000   0.0000000   0.0000000   0.0000000   0.0000000   0.0000000   0.0000000   0.0000000   0.0000000
 NMagM=    0.0000000   0.0000000   0.0000000   0.0000000   0.0000000   0.0000000   0.0000000   0.0000000   0.0000000   0.0000000
 AtZNuc=   6.0000000   6.0000000   6.0000000   6.0000000   6.0000000   6.0000000   6.0000000   6.0000000   6.0000000   6.0000000

  Atom        11          12          13          14          15          16          17          18          19          20
 IAtWgt=          12          12          12          12          31          16          12          12          16          12
 AtmWgt=  12.0000000  12.0000000  12.0000000  12.0000000  30.9737634  15.9949146  12.0000000  12.0000000  15.9949146  12.0000000
 NucSpn=           0           0           0           0           1           0           0           0           0           0
 AtZEff=  -0.0000000  -0.0000000  -0.0000000  -0.0000000  -0.0000000  -0.0000000  -0.0000000  -0.0000000  -0.0000000  -0.0000000
 NQMom=    0.0000000   0.0000000   0.0000000   0.0000000   0.0000000   0.0000000   0.0000000   0.0000000   0.0000000   0.0000000
 NMagM=    0.0000000   0.0000000   0.0000000   0.0000000   1.1316000   0.0000000   0.0000000   0.0000000   0.0000000   0.0000000
 AtZNuc=   6.0000000   6.0000000   6.0000000   6.0000000  15.0000000   8.0000000   6.0000000   6.0000000   8.0000000   6.0000000

  Atom        21          22          23          24          25          26          27          28          29          30
 IAtWgt=          12          12          12          12          12          12          12          12          12           1
 AtmWgt=  12.0000000  12.0000000  12.0000000  12.0000000  12.0000000  12.0000000  12.0000000  12.0000000  12.0000000   1.0078250
 NucSpn=           0           0           0           0           0           0           0           0           0           1
 AtZEff=  -0.0000000  -0.0000000  -0.0000000  -0.0000000  -0.0000000  -0.0000000  -0.0000000  -0.0000000  -0.0000000  -0.0000000
 NQMom=    0.0000000   0.0000000   0.0000000   0.0000000   0.0000000   0.0000000   0.0000000   0.0000000   0.0000000   0.0000000
 NMagM=    0.0000000   0.0000000   0.0000000   0.0000000   0.0000000   0.0000000   0.0000000   0.0000000   0.0000000   2.7928460
 AtZNuc=   6.0000000   6.0000000   6.0000000   6.0000000   6.0000000   6.0000000   6.0000000   6.0000000   6.0000000   1.0000000

  Atom        31          32          33          34          35          36          37          38          39          40
 IAtWgt=           1           1           1           1           1           1           1           1           1           1
 AtmWgt=   1.0078250   1.0078250   1.0078250   1.0078250   1.0078250   1.0078250   1.0078250   1.0078250   1.0078250   1.0078250
 NucSpn=           1           1           1           1           1           1           1           1           1           1
 AtZEff=  -0.0000000  -0.0000000  -0.0000000  -0.0000000  -0.0000000  -0.0000000  -0.0000000  -0.0000000  -0.0000000  -0.0000000
 NQMom=    0.0000000   0.0000000   0.0000000   0.0000000   0.0000000   0.0000000   0.0000000   0.0000000   0.0000000   0.0000000
 NMagM=    2.7928460   2.7928460   2.7928460   2.7928460   2.7928460   2.7928460   2.7928460   2.7928460   2.7928460   2.7928460
 AtZNuc=   1.0000000   1.0000000   1.0000000   1.0000000   1.0000000   1.0000000   1.0000000   1.0000000   1.0000000   1.0000000

  Atom        41          42          43          44          45          46          47          48          49          50
 IAtWgt=           1           1           1           1           1           1           1           1           1           1
 AtmWgt=   1.0078250   1.0078250   1.0078250   1.0078250   1.0078250   1.0078250   1.0078250   1.0078250   1.0078250   1.0078250
 NucSpn=           1           1           1           1           1           1           1           1           1           1
 AtZEff=  -0.0000000  -0.0000000  -0.0000000  -0.0000000  -0.0000000  -0.0000000  -0.0000000  -0.0000000  -0.0000000  -0.0000000
 NQMom=    0.0000000   0.0000000   0.0000000   0.0000000   0.0000000   0.0000000   0.0000000   0.0000000   0.0000000   0.0000000
 NMagM=    2.7928460   2.7928460   2.7928460   2.7928460   2.7928460   2.7928460   2.7928460   2.7928460   2.7928460   2.7928460
 AtZNuc=   1.0000000   1.0000000   1.0000000   1.0000000   1.0000000   1.0000000   1.0000000   1.0000000   1.0000000   1.0000000

  Atom        51          52
 IAtWgt=           1           1
 AtmWgt=   1.0078250   1.0078250
 NucSpn=           1           1
 AtZEff=  -0.0000000  -0.0000000
 NQMom=    0.0000000   0.0000000
 NMagM=    2.7928460   2.7928460
 AtZNuc=   1.0000000   1.0000000
 Leave Link  101 at Mon Jan 19 14:12:51 2026, MaxMem=  8053063680 cpu:              10.5 elap:               0.7
 (Enter /appl/Gaussian16/AVX_revB01/g16/l103.exe)

 GradGradGradGradGradGradGradGradGradGradGradGradGradGradGradGradGradGrad
 Berny optimization.
 Initialization pass.
                           ----------------------------
                           !    Initial Parameters    !
                           ! (Angstroms and Degrees)  !
 --------------------------                            --------------------------
 ! Name  Definition              Value          Derivative Info.                !
 --------------------------------------------------------------------------------
 ! R1    R(1,2)                  1.499          estimate D2E/DX2                !
 ! R2    R(1,30)                 1.0878         estimate D2E/DX2                !
 ! R3    R(1,31)                 1.091          estimate D2E/DX2                !
 ! R4    R(1,32)                 1.0878         estimate D2E/DX2                !
 ! R5    R(2,3)                  1.3891         estimate D2E/DX2                !
 ! R6    R(2,29)                 1.3891         estimate D2E/DX2                !
 ! R7    R(3,4)                  1.3812         estimate D2E/DX2                !
 ! R8    R(3,33)                 1.0814         estimate D2E/DX2                !
 ! R9    R(4,5)                  1.3933         estimate D2E/DX2                !
 ! R10   R(4,34)                 1.0806         estimate D2E/DX2                !
 ! R11   R(5,6)                  1.473          estimate D2E/DX2                !
 ! R12   R(5,28)                 1.3932         estimate D2E/DX2                !
 ! R13   R(6,7)                  1.3916         estimate D2E/DX2                !
 ! R14   R(6,27)                 1.3917         estimate D2E/DX2                !
 ! R15   R(7,8)                  1.3839         estimate D2E/DX2                !
 ! R16   R(7,35)                 1.083          estimate D2E/DX2                !
 ! R17   R(8,9)                  1.4598         estimate D2E/DX2                !
 ! R18   R(8,15)                 1.743          estimate D2E/DX2                !
 ! R19   R(9,10)                 1.3967         estimate D2E/DX2                !
 ! R20   R(9,14)                 1.3945         estimate D2E/DX2                !
 ! R21   R(10,11)                1.3808         estimate D2E/DX2                !
 ! R22   R(10,36)                1.0798         estimate D2E/DX2                !
 ! R23   R(11,12)                1.3858         estimate D2E/DX2                !
 ! R24   R(11,37)                1.0805         estimate D2E/DX2                !
 ! R25   R(12,13)                1.3845         estimate D2E/DX2                !
 ! R26   R(12,38)                1.0799         estimate D2E/DX2                !
 ! R27   R(13,14)                1.3822         estimate D2E/DX2                !
 ! R28   R(13,39)                1.0812         estimate D2E/DX2                !
 ! R29   R(14,40)                1.0798         estimate D2E/DX2                !
 ! R30   R(15,16)                1.6436         estimate D2E/DX2                !
 ! R31   R(15,19)                1.644          estimate D2E/DX2                !
 ! R32   R(15,20)                1.7434         estimate D2E/DX2                !
 ! R33   R(16,17)                1.4054         estimate D2E/DX2                !
 ! R34   R(17,18)                1.5497         estimate D2E/DX2                !
 ! R35   R(17,41)                1.0948         estimate D2E/DX2                !
 ! R36   R(17,42)                1.0935         estimate D2E/DX2                !
 ! R37   R(18,19)                1.4054         estimate D2E/DX2                !
 ! R38   R(18,43)                1.0935         estimate D2E/DX2                !
 ! R39   R(18,44)                1.0948         estimate D2E/DX2                !
 ! R40   R(20,21)                1.4598         estimate D2E/DX2                !
 ! R41   R(20,27)                1.3839         estimate D2E/DX2                !
 ! R42   R(21,22)                1.3966         estimate D2E/DX2                !
 ! R43   R(21,26)                1.3945         estimate D2E/DX2                !
 ! R44   R(22,23)                1.3808         estimate D2E/DX2                !
 ! R45   R(22,45)                1.0798         estimate D2E/DX2                !
 ! R46   R(23,24)                1.3857         estimate D2E/DX2                !
 ! R47   R(23,46)                1.0806         estimate D2E/DX2                !
 ! R48   R(24,25)                1.3845         estimate D2E/DX2                !
 ! R49   R(24,47)                1.0799         estimate D2E/DX2                !
 ! R50   R(25,26)                1.3822         estimate D2E/DX2                !
 ! R51   R(25,48)                1.0812         estimate D2E/DX2                !
 ! R52   R(26,49)                1.0797         estimate D2E/DX2                !
 ! R53   R(27,50)                1.083          estimate D2E/DX2                !
 ! R54   R(28,29)                1.3812         estimate D2E/DX2                !
 ! R55   R(28,51)                1.0806         estimate D2E/DX2                !
 ! R56   R(29,52)                1.0814         estimate D2E/DX2                !
 ! A1    A(2,1,30)             110.9021         estimate D2E/DX2                !
 ! A2    A(2,1,31)             110.0371         estimate D2E/DX2                !
 ! A3    A(2,1,32)             110.9145         estimate D2E/DX2                !
 ! A4    A(30,1,31)            107.9713         estimate D2E/DX2                !
 ! A5    A(30,1,32)            108.9463         estimate D2E/DX2                !
 ! A6    A(31,1,32)            107.9728         estimate D2E/DX2                !
 ! A7    A(1,2,3)              120.916          estimate D2E/DX2                !
 ! A8    A(1,2,29)             120.9135         estimate D2E/DX2                !
 ! A9    A(3,2,29)             118.1617         estimate D2E/DX2                !
 ! A10   A(2,3,4)              120.9937         estimate D2E/DX2                !
 ! A11   A(2,3,33)             119.4271         estimate D2E/DX2                !
 ! A12   A(4,3,33)             119.578          estimate D2E/DX2                !
 ! A13   A(3,4,5)              120.9808         estimate D2E/DX2                !
 ! A14   A(3,4,34)             119.4855         estimate D2E/DX2                !
 ! A15   A(5,4,34)             119.5188         estimate D2E/DX2                !
 ! A16   A(4,5,6)              121.041          estimate D2E/DX2                !
 ! A17   A(4,5,28)             117.8874         estimate D2E/DX2                !
 ! A18   A(6,5,28)             121.0715         estimate D2E/DX2                !
 ! A19   A(5,6,7)              118.8285         estimate D2E/DX2                !
 ! A20   A(5,6,27)             118.7908         estimate D2E/DX2                !
 ! A21   A(7,6,27)             122.3807         estimate D2E/DX2                !
 ! A22   A(6,7,8)              126.7555         estimate D2E/DX2                !
 ! A23   A(6,7,35)             116.958          estimate D2E/DX2                !
 ! A24   A(8,7,35)             116.2589         estimate D2E/DX2                !
 ! A25   A(7,8,9)              122.8003         estimate D2E/DX2                !
 ! A26   A(7,8,15)             118.0479         estimate D2E/DX2                !
 ! A27   A(9,8,15)             119.0352         estimate D2E/DX2                !
 ! A28   A(8,9,10)             120.9127         estimate D2E/DX2                !
 ! A29   A(8,9,14)             120.9243         estimate D2E/DX2                !
 ! A30   A(10,9,14)            118.1466         estimate D2E/DX2                !
 ! A31   A(9,10,11)            120.789          estimate D2E/DX2                !
 ! A32   A(9,10,36)            119.4293         estimate D2E/DX2                !
 ! A33   A(11,10,36)           119.7701         estimate D2E/DX2                !
 ! A34   A(10,11,12)           120.4143         estimate D2E/DX2                !
 ! A35   A(10,11,37)           119.6997         estimate D2E/DX2                !
 ! A36   A(12,11,37)           119.8839         estimate D2E/DX2                !
 ! A37   A(11,12,13)           119.4281         estimate D2E/DX2                !
 ! A38   A(11,12,38)           120.2952         estimate D2E/DX2                !
 ! A39   A(13,12,38)           120.2767         estimate D2E/DX2                !
 ! A40   A(12,13,14)           120.2467         estimate D2E/DX2                !
 ! A41   A(12,13,39)           119.9654         estimate D2E/DX2                !
 ! A42   A(14,13,39)           119.7869         estimate D2E/DX2                !
 ! A43   A(9,14,13)            120.9736         estimate D2E/DX2                !
 ! A44   A(9,14,40)            119.3109         estimate D2E/DX2                !
 ! A45   A(13,14,40)           119.6664         estimate D2E/DX2                !
 ! A46   A(8,15,16)            119.298          estimate D2E/DX2                !
 ! A47   A(8,15,19)            108.4731         estimate D2E/DX2                !
 ! A48   A(8,15,20)            108.0243         estimate D2E/DX2                !
 ! A49   A(16,15,19)            93.4336         estimate D2E/DX2                !
 ! A50   A(16,15,20)           108.4433         estimate D2E/DX2                !
 ! A51   A(19,15,20)           119.2686         estimate D2E/DX2                !
 ! A52   A(15,16,17)           115.2455         estimate D2E/DX2                !
 ! A53   A(16,17,18)           106.8224         estimate D2E/DX2                !
 ! A54   A(16,17,41)           108.9654         estimate D2E/DX2                !
 ! A55   A(16,17,42)           109.2499         estimate D2E/DX2                !
 ! A56   A(18,17,41)           110.9805         estimate D2E/DX2                !
 ! A57   A(18,17,42)           111.3743         estimate D2E/DX2                !
 ! A58   A(41,17,42)           109.3783         estimate D2E/DX2                !
 ! A59   A(17,18,19)           106.8335         estimate D2E/DX2                !
 ! A60   A(17,18,43)           111.3781         estimate D2E/DX2                !
 ! A61   A(17,18,44)           110.9669         estimate D2E/DX2                !
 ! A62   A(19,18,43)           109.2511         estimate D2E/DX2                !
 ! A63   A(19,18,44)           108.9671         estimate D2E/DX2                !
 ! A64   A(43,18,44)           109.3746         estimate D2E/DX2                !
 ! A65   A(15,19,18)           115.2237         estimate D2E/DX2                !
 ! A66   A(15,20,21)           119.0509         estimate D2E/DX2                !
 ! A67   A(15,20,27)           118.0493         estimate D2E/DX2                !
 ! A68   A(21,20,27)           122.7823         estimate D2E/DX2                !
 ! A69   A(20,21,22)           120.9274         estimate D2E/DX2                !
 ! A70   A(20,21,26)           120.9017         estimate D2E/DX2                !
 ! A71   A(22,21,26)           118.1546         estimate D2E/DX2                !
 ! A72   A(21,22,23)           120.7812         estimate D2E/DX2                !
 ! A73   A(21,22,45)           119.4298         estimate D2E/DX2                !
 ! A74   A(23,22,45)           119.7774         estimate D2E/DX2                !
 ! A75   A(22,23,24)           120.4176         estimate D2E/DX2                !
 ! A76   A(22,23,46)           119.6996         estimate D2E/DX2                !
 ! A77   A(24,23,46)           119.8806         estimate D2E/DX2                !
 ! A78   A(23,24,25)           119.4328         estimate D2E/DX2                !
 ! A79   A(23,24,47)           120.2894         estimate D2E/DX2                !
 ! A80   A(25,24,47)           120.2778         estimate D2E/DX2                !
 ! A81   A(24,25,26)           120.2415         estimate D2E/DX2                !
 ! A82   A(24,25,48)           119.9729         estimate D2E/DX2                !
 ! A83   A(26,25,48)           119.7846         estimate D2E/DX2                !
 ! A84   A(21,26,25)           120.9707         estimate D2E/DX2                !
 ! A85   A(21,26,49)           119.3131         estimate D2E/DX2                !
 ! A86   A(25,26,49)           119.6673         estimate D2E/DX2                !
 ! A87   A(6,27,20)            126.7396         estimate D2E/DX2                !
 ! A88   A(6,27,50)            116.9718         estimate D2E/DX2                !
 ! A89   A(20,27,50)           116.2606         estimate D2E/DX2                !
 ! A90   A(5,28,29)            120.978          estimate D2E/DX2                !
 ! A91   A(5,28,51)            119.5215         estimate D2E/DX2                !
 ! A92   A(29,28,51)           119.4892         estimate D2E/DX2                !
 ! A93   A(2,29,28)            120.9982         estimate D2E/DX2                !
 ! A94   A(2,29,52)            119.4204         estimate D2E/DX2                !
 ! A95   A(28,29,52)           119.581          estimate D2E/DX2                !
 ! D1    D(30,1,2,3)           -29.9636         estimate D2E/DX2                !
 ! D2    D(30,1,2,29)          151.1334         estimate D2E/DX2                !
 ! D3    D(31,1,2,3)            89.4321         estimate D2E/DX2                !
 ! D4    D(31,1,2,29)          -89.4709         estimate D2E/DX2                !
 ! D5    D(32,1,2,3)          -151.1626         estimate D2E/DX2                !
 ! D6    D(32,1,2,29)           29.9344         estimate D2E/DX2                !
 ! D7    D(1,2,3,4)           -178.97           estimate D2E/DX2                !
 ! D8    D(1,2,3,33)             1.4425         estimate D2E/DX2                !
 ! D9    D(29,2,3,4)            -0.0375         estimate D2E/DX2                !
 ! D10   D(29,2,3,33)         -179.6251         estimate D2E/DX2                !
 ! D11   D(1,2,29,28)          178.9839         estimate D2E/DX2                !
 ! D12   D(1,2,29,52)           -0.7809         estimate D2E/DX2                !
 ! D13   D(3,2,29,28)            0.0514         estimate D2E/DX2                !
 ! D14   D(3,2,29,52)         -179.7134         estimate D2E/DX2                !
 ! D15   D(2,3,4,5)              0.0084         estimate D2E/DX2                !
 ! D16   D(2,3,4,34)          -178.5819         estimate D2E/DX2                !
 ! D17   D(33,3,4,5)           179.5953         estimate D2E/DX2                !
 ! D18   D(33,3,4,34)            1.0051         estimate D2E/DX2                !
 ! D19   D(3,4,5,6)           -179.9096         estimate D2E/DX2                !
 ! D20   D(3,4,5,28)             0.0078         estimate D2E/DX2                !
 ! D21   D(34,4,5,6)            -1.3198         estimate D2E/DX2                !
 ! D22   D(34,4,5,28)          178.5976         estimate D2E/DX2                !
 ! D23   D(4,5,6,7)            138.2933         estimate D2E/DX2                !
 ! D24   D(4,5,6,27)           -41.7209         estimate D2E/DX2                !
 ! D25   D(28,5,6,7)           -41.6215         estimate D2E/DX2                !
 ! D26   D(28,5,6,27)          138.3643         estimate D2E/DX2                !
 ! D27   D(4,5,28,29)            0.006          estimate D2E/DX2                !
 ! D28   D(4,5,28,51)          178.7764         estimate D2E/DX2                !
 ! D29   D(6,5,28,29)          179.9234         estimate D2E/DX2                !
 ! D30   D(6,5,28,51)           -1.3062         estimate D2E/DX2                !
 ! D31   D(5,6,7,8)           -179.7285         estimate D2E/DX2                !
 ! D32   D(5,6,7,35)            -1.7214         estimate D2E/DX2                !
 ! D33   D(27,6,7,8)             0.2862         estimate D2E/DX2                !
 ! D34   D(27,6,7,35)          178.2933         estimate D2E/DX2                !
 ! D35   D(5,6,27,20)         -179.706          estimate D2E/DX2                !
 ! D36   D(5,6,27,50)           -1.7147         estimate D2E/DX2                !
 ! D37   D(7,6,27,20)            0.2794         estimate D2E/DX2                !
 ! D38   D(7,6,27,50)          178.2706         estimate D2E/DX2                !
 ! D39   D(6,7,8,9)           -176.515          estimate D2E/DX2                !
 ! D40   D(6,7,8,15)            -0.4834         estimate D2E/DX2                !
 ! D41   D(35,7,8,9)             5.4658         estimate D2E/DX2                !
 ! D42   D(35,7,8,15)         -178.5026         estimate D2E/DX2                !
 ! D43   D(7,8,9,10)            34.9465         estimate D2E/DX2                !
 ! D44   D(7,8,9,14)          -146.5591         estimate D2E/DX2                !
 ! D45   D(15,8,9,10)         -141.0476         estimate D2E/DX2                !
 ! D46   D(15,8,9,14)           37.4467         estimate D2E/DX2                !
 ! D47   D(7,8,15,16)          124.5398         estimate D2E/DX2                !
 ! D48   D(7,8,15,19)         -130.3982         estimate D2E/DX2                !
 ! D49   D(7,8,15,20)            0.2016         estimate D2E/DX2                !
 ! D50   D(9,8,15,16)          -59.2752         estimate D2E/DX2                !
 ! D51   D(9,8,15,19)           45.7869         estimate D2E/DX2                !
 ! D52   D(9,8,15,20)          176.3867         estimate D2E/DX2                !
 ! D53   D(8,9,10,11)          178.5418         estimate D2E/DX2                !
 ! D54   D(8,9,10,36)           -0.2167         estimate D2E/DX2                !
 ! D55   D(14,9,10,11)           0.0066         estimate D2E/DX2                !
 ! D56   D(14,9,10,36)        -178.7518         estimate D2E/DX2                !
 ! D57   D(8,9,14,13)         -178.2897         estimate D2E/DX2                !
 ! D58   D(8,9,14,40)            4.2689         estimate D2E/DX2                !
 ! D59   D(10,9,14,13)           0.2453         estimate D2E/DX2                !
 ! D60   D(10,9,14,40)        -177.196          estimate D2E/DX2                !
 ! D61   D(9,10,11,12)          -0.372          estimate D2E/DX2                !
 ! D62   D(9,10,11,37)        -179.842          estimate D2E/DX2                !
 ! D63   D(36,10,11,12)        178.3823         estimate D2E/DX2                !
 ! D64   D(36,10,11,37)         -1.0877         estimate D2E/DX2                !
 ! D65   D(10,11,12,13)          0.4837         estimate D2E/DX2                !
 ! D66   D(10,11,12,38)       -179.5976         estimate D2E/DX2                !
 ! D67   D(37,11,12,13)        179.9526         estimate D2E/DX2                !
 ! D68   D(37,11,12,38)         -0.1286         estimate D2E/DX2                !
 ! D69   D(11,12,13,14)         -0.2326         estimate D2E/DX2                !
 ! D70   D(11,12,13,39)        179.3892         estimate D2E/DX2                !
 ! D71   D(38,12,13,14)        179.8487         estimate D2E/DX2                !
 ! D72   D(38,12,13,39)         -0.5295         estimate D2E/DX2                !
 ! D73   D(12,13,14,9)          -0.1335         estimate D2E/DX2                !
 ! D74   D(12,13,14,40)        177.2988         estimate D2E/DX2                !
 ! D75   D(39,13,14,9)        -179.7559         estimate D2E/DX2                !
 ! D76   D(39,13,14,40)         -2.3236         estimate D2E/DX2                !
 ! D77   D(8,15,16,17)         118.9104         estimate D2E/DX2                !
 ! D78   D(19,15,16,17)          5.4787         estimate D2E/DX2                !
 ! D79   D(20,15,16,17)       -116.9542         estimate D2E/DX2                !
 ! D80   D(8,15,19,18)        -116.9472         estimate D2E/DX2                !
 ! D81   D(16,15,19,18)          5.5262         estimate D2E/DX2                !
 ! D82   D(20,15,19,18)        118.9135         estimate D2E/DX2                !
 ! D83   D(8,15,20,21)         176.4124         estimate D2E/DX2                !
 ! D84   D(8,15,20,27)           0.2423         estimate D2E/DX2                !
 ! D85   D(16,15,20,21)         45.7964         estimate D2E/DX2                !
 ! D86   D(16,15,20,27)       -130.3736         estimate D2E/DX2                !
 ! D87   D(19,15,20,21)        -59.231          estimate D2E/DX2                !
 ! D88   D(19,15,20,27)        124.5989         estimate D2E/DX2                !
 ! D89   D(15,16,17,18)        -13.3639         estimate D2E/DX2                !
 ! D90   D(15,16,17,41)        106.5984         estimate D2E/DX2                !
 ! D91   D(15,16,17,42)       -133.9535         estimate D2E/DX2                !
 ! D92   D(16,17,18,19)         16.089          estimate D2E/DX2                !
 ! D93   D(16,17,18,43)        135.3217         estimate D2E/DX2                !
 ! D94   D(16,17,18,44)       -102.5699         estimate D2E/DX2                !
 ! D95   D(41,17,18,19)       -102.5687         estimate D2E/DX2                !
 ! D96   D(41,17,18,43)         16.664          estimate D2E/DX2                !
 ! D97   D(41,17,18,44)        138.7724         estimate D2E/DX2                !
 ! D98   D(42,17,18,19)        135.3113         estimate D2E/DX2                !
 ! D99   D(42,17,18,43)       -105.4561         estimate D2E/DX2                !
 ! D100  D(42,17,18,44)         16.6523         estimate D2E/DX2                !
 ! D101  D(17,18,19,15)        -13.3984         estimate D2E/DX2                !
 ! D102  D(43,18,19,15)       -133.9995         estimate D2E/DX2                !
 ! D103  D(44,18,19,15)        106.555          estimate D2E/DX2                !
 ! D104  D(15,20,21,22)       -141.0495         estimate D2E/DX2                !
 ! D105  D(15,20,21,26)         37.4556         estimate D2E/DX2                !
 ! D106  D(27,20,21,22)         34.9298         estimate D2E/DX2                !
 ! D107  D(27,20,21,26)       -146.5652         estimate D2E/DX2                !
 ! D108  D(15,20,27,6)          -0.5041         estimate D2E/DX2                !
 ! D109  D(15,20,27,50)       -178.5078         estimate D2E/DX2                !
 ! D110  D(21,20,27,6)        -176.5215         estimate D2E/DX2                !
 ! D111  D(21,20,27,50)          5.4748         estimate D2E/DX2                !
 ! D112  D(20,21,22,23)        178.5638         estimate D2E/DX2                !
 ! D113  D(20,21,22,45)         -0.1909         estimate D2E/DX2                !
 ! D114  D(26,21,22,23)          0.0187         estimate D2E/DX2                !
 ! D115  D(26,21,22,45)       -178.736          estimate D2E/DX2                !
 ! D116  D(20,21,26,25)       -178.314          estimate D2E/DX2                !
 ! D117  D(20,21,26,49)          4.2394         estimate D2E/DX2                !
 ! D118  D(22,21,26,25)          0.2316         estimate D2E/DX2                !
 ! D119  D(22,21,26,49)       -177.215          estimate D2E/DX2                !
 ! D120  D(21,22,23,24)         -0.3724         estimate D2E/DX2                !
 ! D121  D(21,22,23,46)       -179.8397         estimate D2E/DX2                !
 ! D122  D(45,22,23,24)        178.378          estimate D2E/DX2                !
 ! D123  D(45,22,23,46)         -1.0893         estimate D2E/DX2                !
 ! D124  D(22,23,24,25)          0.4738         estimate D2E/DX2                !
 ! D125  D(22,23,24,47)       -179.6102         estimate D2E/DX2                !
 ! D126  D(46,23,24,25)        179.9401         estimate D2E/DX2                !
 ! D127  D(46,23,24,47)         -0.1438         estimate D2E/DX2                !
 ! D128  D(23,24,25,26)         -0.2243         estimate D2E/DX2                !
 ! D129  D(23,24,25,48)        179.3992         estimate D2E/DX2                !
 ! D130  D(47,24,25,26)        179.8596         estimate D2E/DX2                !
 ! D131  D(47,24,25,48)         -0.5169         estimate D2E/DX2                !
 ! D132  D(24,25,26,21)         -0.1298         estimate D2E/DX2                !
 ! D133  D(24,25,26,49)        177.3079         estimate D2E/DX2                !
 ! D134  D(48,25,26,21)       -179.754          estimate D2E/DX2                !
 ! D135  D(48,25,26,49)         -2.3163         estimate D2E/DX2                !
 ! D136  D(5,28,29,2)           -0.0364         estimate D2E/DX2                !
 ! D137  D(5,28,29,52)         179.728          estimate D2E/DX2                !
 ! D138  D(51,28,29,2)        -178.8072         estimate D2E/DX2                !
 ! D139  D(51,28,29,52)          0.9572         estimate D2E/DX2                !
 --------------------------------------------------------------------------------
 Trust Radius=3.00D-01 FncErr=1.00D-07 GrdErr=1.00D-06 EigMax=2.50D+02 EigMin=1.00D-04
 Number of steps in this run=    300 maximum allowed number of steps=    312.
 GradGradGradGradGradGradGradGradGradGradGradGradGradGradGradGradGradGrad

 Leave Link  103 at Mon Jan 19 14:12:51 2026, MaxMem=  8053063680 cpu:               0.2 elap:               0.1
 (Enter /appl/Gaussian16/AVX_revB01/g16/l202.exe)
 Stoichiometry    C26H23O2P
 Framework group  C1[X(C26H23O2P)]
 Deg. of freedom   150
 Full point group                 C1      NOp   1
 Largest Abelian subgroup         C1      NOp   1
 Largest concise Abelian subgroup C1      NOp   1
                         Standard orientation:                         
 ---------------------------------------------------------------------
 Center     Atomic      Atomic             Coordinates (Angstroms)
 Number     Number       Type             X           Y           Z
 ---------------------------------------------------------------------
      1          6           0       -7.391976   -0.001547   -0.010001
      2          6           0       -5.893138   -0.012170    0.006203
      3          6           0       -5.180395    0.940261    0.723448
      4          6           0       -3.799240    0.944729    0.722452
      5          6           0       -3.079491   -0.005954    0.001776
      6          6           0       -1.606445   -0.003623    0.001369
      7          6           0       -0.933497   -1.217770    0.098593
      8          6           0        0.437513   -1.405439    0.118703
      9          6           0        1.054255   -2.728218    0.149341
     10          6           0        0.475638   -3.805488   -0.525538
     11          6           0        1.076882   -5.048507   -0.519634
     12          6           0        2.272664   -5.246223    0.152181
     13          6           0        2.856489   -4.188024    0.827583
     14          6           0        2.253587   -2.944196    0.827208
     15         15           0        1.459204    0.001796    0.000227
     16          8           0        2.585711    0.278182    1.164697
     17          6           0        3.917684    0.300573    0.716868
     18          6           0        3.918667   -0.287090   -0.717123
     19          8           0        2.586666   -0.269660   -1.165019
     20          6           0        0.432195    1.405669   -0.117962
     21          6           0        1.043839    2.730800   -0.149386
     22          6           0        0.461827    3.806200    0.525411
     23          6           0        1.058475    5.051455    0.518067
     24          6           0        2.252787    5.253220   -0.155070
     25          6           0        2.840082    4.196793   -0.830271
     26          6           0        2.241854    2.950711   -0.828463
     27          6           0       -0.938131    1.213183   -0.096570
     28          6           0       -3.797226   -0.959630   -0.716822
     29          6           0       -5.178393   -0.960970   -0.713821
     30          1           0       -7.787248    0.406392    0.917730
     31          1           0       -7.752521    0.619409   -0.831349
     32          1           0       -7.785923   -1.005736   -0.150421
     33          1           0       -5.716185    1.684848    1.296128
     34          1           0       -3.269318    1.682747    1.307476
     35          1           0       -1.540646   -2.108954    0.199211
     36          1           0       -0.442422   -3.656595   -1.074094
     37          1           0        0.615161   -5.869063   -1.049805
     38          1           0        2.744517   -6.217572    0.150121
     39          1           0        3.784286   -4.335013    1.362853
     40          1           0        2.693855   -2.136711    1.392950
     41          1           0        4.275679    1.335186    0.716753
     42          1           0        4.535400   -0.297018    1.392883
     43          1           0        4.534255    0.312601   -1.393227
     44          1           0        4.280486   -1.320388   -0.716796
     45          1           0       -0.455071    3.654126    1.075028
     46          1           0        0.594287    5.870641    1.048215
     47          1           0        2.720818    6.226428   -0.154210
     48          1           0        3.766856    4.346825   -1.366454
     49          1           0        2.684700    2.144455   -1.393869
     50          1           0       -1.548503    2.102139   -0.196932
     51          1           0       -3.265830   -1.697226   -1.301053
     52          1           0       -5.712747   -1.709101   -1.283219
 ---------------------------------------------------------------------
 Rotational constants (GHZ):           0.1705983           0.1280896           0.0765706
 Leave Link  202 at Mon Jan 19 14:12:51 2026, MaxMem=  8053063680 cpu:               0.0 elap:               0.0
 (Enter /appl/Gaussian16/AVX_revB01/g16/l301.exe)
 Standard basis: 6-31G(d) (6D, 7F)
 Ernie: Thresh=  0.10000D-02 Tol=  0.10000D-05 Strict=F.
 There are   485 symmetry adapted cartesian basis functions of A   symmetry.
 There are   485 symmetry adapted basis functions of A   symmetry.
   485 basis functions,   928 primitive gaussians,   485 cartesian basis functions
   105 alpha electrons      105 beta electrons
       nuclear repulsion energy      2797.8085719650 Hartrees.
 IExCor=  402 DFT=T Ex+Corr=B3LYP ExCW=0 ScaHFX=  0.200000
 ScaDFX=  0.800000  0.720000  1.000000  0.810000 ScalE2=  1.000000  1.000000
 IRadAn=      5 IRanWt=     -1 IRanGd=            0 ICorTp=0 IEmpDi=  4
 NAtoms=   52 NActive=   52 NUniq=   52 SFac= 1.00D+00 NAtFMM=   60 NAOKFM=F Big=F
 Integral buffers will be    131072 words long.
 Raffenetti 2 integral format.
 Two-electron integral symmetry is turned on.
 Leave Link  301 at Mon Jan 19 14:12:51 2026, MaxMem=  8053063680 cpu:               0.6 elap:               0.1
 (Enter /appl/Gaussian16/AVX_revB01/g16/l302.exe)
 NPDir=0 NMtPBC=     1 NCelOv=     1 NCel=       1 NClECP=     1 NCelD=      1
         NCelK=      1 NCelE2=     1 NClLst=     1 CellRange=     0.0.
 One-electron integrals computed using PRISM.
 One-electron integral symmetry used in STVInt
 NBasis=   485 RedAO= T EigKep=  3.75D-04  NBF=   485
 NBsUse=   485 1.00D-06 EigRej= -1.00D+00 NBFU=   485
 Precomputing XC quadrature grid using
 IXCGrd= 4 IRadAn=           5 IRanWt=          -1 IRanGd=           0 AccXCQ= 0.00D+00.
 Generated NRdTot=       0 NPtTot=           0 NUsed=           0 NTot=          32
 NSgBfM=   477   477   477   477   477 MxSgAt=    52 MxSgA2=    52.
 Leave Link  302 at Mon Jan 19 14:12:52 2026, MaxMem=  8053063680 cpu:               8.1 elap:               0.5
 (Enter /appl/Gaussian16/AVX_revB01/g16/l303.exe)
 DipDrv:  MaxL=1.
 Leave Link  303 at Mon Jan 19 14:12:52 2026, MaxMem=  8053063680 cpu:               0.8 elap:               0.1
 (Enter /appl/Gaussian16/AVX_revB01/g16/l401.exe)
 ExpMin= 9.98D-02 ExpMax= 1.94D+04 ExpMxC= 2.91D+03 IAcc=3 IRadAn=         5 AccDes= 0.00D+00
 Harris functional with IExCor=  402 and IRadAn=       5 diagonalized for initial guess.
 HarFok:  IExCor=  402 AccDes= 0.00D+00 IRadAn=         5 IDoV= 1 UseB2=F ITyADJ=14
 ICtDFT=  3500011 ScaDFX=  1.000000  1.000000  1.000000  1.000000
 FoFCou: FMM=F IPFlag=           0 FMFlag=      100000 FMFlg1=           0
         NFxFlg=           0 DoJE=T BraDBF=F KetDBF=T FulRan=T
         wScrn=  0.000000 ICntrl=       500 IOpCl=  0 I1Cent=   200000004 NGrid=           0
         NMat0=    1 NMatS0=      1 NMatT0=    0 NMatD0=    1 NMtDS0=    0 NMtDT0=    0
 Petite list used in FoFCou.
 Harris En= -1496.51333125064    
 JPrj=0 DoOrth=F DoCkMO=F.
 Leave Link  401 at Mon Jan 19 14:12:54 2026, MaxMem=  8053063680 cpu:              32.6 elap:               2.0
 (Enter /appl/Gaussian16/AVX_revB01/g16/l502.exe)
 Integral symmetry usage will be decided dynamically.
 Closed shell SCF:
 Using DIIS extrapolation, IDIIS=  1040.
 NGot=  8053063680 LenX=  8052580134 LenY=  8052344424
 Requested convergence on RMS density matrix=1.00D-08 within  32 cycles.
 Requested convergence on MAX density matrix=1.00D-06.
 Requested convergence on             energy=1.00D-06.
 No special actions if energy rises.
 Fock matrices will be formed incrementally for  20 cycles.
 Integral accuracy reduced to 1.0D-05 until final iterations.

 Cycle   1  Pass 0  IDiag  1:
 FoFJK:  IHMeth= 1 ICntrl=       0 DoSepK=F KAlg= 0 I1Cent=           0 FoldK=F
 IRaf= 670000000 NMat=       1 IRICut=       1 DoRegI=T DoRafI=F ISym2E= 0 IDoP0=0 IntGTp=1.
 FoFCou: FMM=F IPFlag=           0 FMFlag=      100000 FMFlg1=           0
         NFxFlg=           0 DoJE=F BraDBF=F KetDBF=F FulRan=T
         wScrn=  0.000000 ICntrl=         0 IOpCl=  0 I1Cent=           0 NGrid=           0
         NMat0=    1 NMatS0=      1 NMatT0=    0 NMatD0=    1 NMtDS0=    0 NMtDT0=    0
 Symmetry not used in FoFCou.
 E= -1495.65680415244    
 DIIS: error= 3.15D-02 at cycle   1 NSaved=   1.
 NSaved= 1 IEnMin= 1 EnMin= -1495.65680415244     IErMin= 1 ErrMin= 3.15D-02
 ErrMax= 3.15D-02  0.00D+00 EMaxC= 1.00D-01 BMatC= 7.21D-01 BMatP= 7.21D-01
 IDIUse=3 WtCom= 6.85D-01 WtEn= 3.15D-01
 Coeff-Com:  0.100D+01
 Coeff-En:   0.100D+01
 Coeff:      0.100D+01
 Gap=     0.148 Goal=   None    Shift=    0.000
 GapD=    0.148 DampG=1.000 DampE=0.500 DampFc=0.5000 IDamp=-1.
 Damping current iteration by 5.00D-01
 RMSDP=4.53D-03 MaxDP=3.63D-01              OVMax= 3.04D-01

 Cycle   2  Pass 0  IDiag  1:
 RMSU=  2.24D-03    CP:  9.80D-01
 E= -1495.98936479973     Delta-E=       -0.332560647292 Rises=F Damp=T
 DIIS: error= 6.84D-03 at cycle   2 NSaved=   2.
 NSaved= 2 IEnMin= 2 EnMin= -1495.98936479973     IErMin= 2 ErrMin= 6.84D-03
 ErrMax= 6.84D-03  0.00D+00 EMaxC= 1.00D-01 BMatC= 4.43D-02 BMatP= 7.21D-01
 IDIUse=3 WtCom= 9.32D-01 WtEn= 6.84D-02
 Coeff-Com:  0.517D-01 0.948D+00
 Coeff-En:   0.109D+00 0.891D+00
 Coeff:      0.556D-01 0.944D+00
 Gap=     0.198 Goal=   None    Shift=    0.000
 RMSDP=1.41D-03 MaxDP=1.70D-01 DE=-3.33D-01 OVMax= 3.63D-01

 Cycle   3  Pass 0  IDiag  1:
 RMSU=  1.28D-03    CP:  9.67D-01  7.49D-01
 E= -1496.37726623832     Delta-E=       -0.387901438590 Rises=F Damp=F
 DIIS: error= 9.93D-03 at cycle   3 NSaved=   3.
 NSaved= 3 IEnMin= 3 EnMin= -1496.37726623832     IErMin= 2 ErrMin= 6.84D-03
 ErrMax= 9.93D-03  0.00D+00 EMaxC= 1.00D-01 BMatC= 3.62D-02 BMatP= 4.43D-02
 IDIUse=3 WtCom= 9.01D-01 WtEn= 9.93D-02
 Coeff-Com: -0.213D-01 0.473D+00 0.548D+00
 Coeff-En:   0.000D+00 0.000D+00 0.100D+01
 Coeff:     -0.192D-01 0.426D+00 0.593D+00
 Gap=     0.143 Goal=   None    Shift=    0.000
 RMSDP=8.81D-04 MaxDP=7.74D-02 DE=-3.88D-01 OVMax= 1.10D-01

 Cycle   4  Pass 0  IDiag  1:
 RMSU=  6.10D-04    CP:  9.69D-01  8.80D-01  5.58D-01
 E= -1496.40177515177     Delta-E=       -0.024508913447 Rises=F Damp=F
 DIIS: error= 5.72D-03 at cycle   4 NSaved=   4.
 NSaved= 4 IEnMin= 4 EnMin= -1496.40177515177     IErMin= 4 ErrMin= 5.72D-03
 ErrMax= 5.72D-03  0.00D+00 EMaxC= 1.00D-01 BMatC= 1.51D-02 BMatP= 3.62D-02
 IDIUse=3 WtCom= 9.43D-01 WtEn= 5.72D-02
 Coeff-Com: -0.202D-01 0.139D+00 0.397D+00 0.484D+00
 Coeff-En:   0.000D+00 0.000D+00 0.321D+00 0.679D+00
 Coeff:     -0.190D-01 0.131D+00 0.392D+00 0.496D+00
 Gap=     0.141 Goal=   None    Shift=    0.000
 RMSDP=3.83D-04 MaxDP=1.62D-02 DE=-2.45D-02 OVMax= 4.39D-02

 Cycle   5  Pass 0  IDiag  1:
 RMSU=  1.81D-04    CP:  9.68D-01  8.59D-01  6.92D-01  5.29D-01
 E= -1496.41747506829     Delta-E=       -0.015699916523 Rises=F Damp=F
 DIIS: error= 1.52D-03 at cycle   5 NSaved=   5.
 NSaved= 5 IEnMin= 5 EnMin= -1496.41747506829     IErMin= 5 ErrMin= 1.52D-03
 ErrMax= 1.52D-03  0.00D+00 EMaxC= 1.00D-01 BMatC= 1.34D-03 BMatP= 1.51D-02
 IDIUse=3 WtCom= 9.85D-01 WtEn= 1.52D-02
 Coeff-Com: -0.933D-02 0.337D-01 0.179D+00 0.303D+00 0.494D+00
 Coeff-En:   0.000D+00 0.000D+00 0.000D+00 0.333D-01 0.967D+00
 Coeff:     -0.919D-02 0.331D-01 0.176D+00 0.299D+00 0.501D+00
 Gap=     0.139 Goal=   None    Shift=    0.000
 RMSDP=1.13D-04 MaxDP=7.56D-03 DE=-1.57D-02 OVMax= 1.03D-02

 Cycle   6  Pass 0  IDiag  1:
 RMSU=  5.40D-05    CP:  9.68D-01  8.57D-01  7.00D-01  5.79D-01  4.86D-01
 E= -1496.41883130690     Delta-E=       -0.001356238609 Rises=F Damp=F
 DIIS: error= 5.06D-04 at cycle   6 NSaved=   6.
 NSaved= 6 IEnMin= 6 EnMin= -1496.41883130690     IErMin= 6 ErrMin= 5.06D-04
 ErrMax= 5.06D-04  0.00D+00 EMaxC= 1.00D-01 BMatC= 7.87D-05 BMatP= 1.34D-03
 IDIUse=3 WtCom= 9.95D-01 WtEn= 5.06D-03
 Coeff-Com: -0.282D-02 0.509D-02 0.521D-01 0.103D+00 0.261D+00 0.581D+00
 Coeff-En:   0.000D+00 0.000D+00 0.000D+00 0.000D+00 0.000D+00 0.100D+01
 Coeff:     -0.281D-02 0.506D-02 0.518D-01 0.102D+00 0.260D+00 0.584D+00
 Gap=     0.139 Goal=   None    Shift=    0.000
 RMSDP=2.74D-05 MaxDP=1.43D-03 DE=-1.36D-03 OVMax= 3.46D-03

 Cycle   7  Pass 0  IDiag  1:
 RMSU=  1.52D-05    CP:  9.68D-01  8.57D-01  7.01D-01  5.78D-01  5.65D-01
                    CP:  6.74D-01
 E= -1496.41890601749     Delta-E=       -0.000074710597 Rises=F Damp=F
 DIIS: error= 2.30D-04 at cycle   7 NSaved=   7.
 NSaved= 7 IEnMin= 7 EnMin= -1496.41890601749     IErMin= 7 ErrMin= 2.30D-04
 ErrMax= 2.30D-04  0.00D+00 EMaxC= 1.00D-01 BMatC= 1.09D-05 BMatP= 7.87D-05
 IDIUse=3 WtCom= 9.98D-01 WtEn= 2.30D-03
 Coeff-Com: -0.996D-03 0.434D-03 0.184D-01 0.403D-01 0.123D+00 0.357D+00
 Coeff-Com:  0.462D+00
 Coeff-En:   0.000D+00 0.000D+00 0.000D+00 0.000D+00 0.000D+00 0.618D-01
 Coeff-En:   0.938D+00
 Coeff:     -0.994D-03 0.433D-03 0.184D-01 0.402D-01 0.123D+00 0.356D+00
 Coeff:      0.463D+00
 Gap=     0.139 Goal=   None    Shift=    0.000
 RMSDP=9.16D-06 MaxDP=4.44D-04 DE=-7.47D-05 OVMax= 1.29D-03

 Initial convergence to 1.0D-05 achieved.  Increase integral accuracy.
 Cycle   8  Pass 1  IDiag  1:
 E= -1496.41895422640     Delta-E=       -0.000048208910 Rises=F Damp=F
 DIIS: error= 9.31D-05 at cycle   1 NSaved=   1.
 NSaved= 1 IEnMin= 1 EnMin= -1496.41895422640     IErMin= 1 ErrMin= 9.31D-05
 ErrMax= 9.31D-05  0.00D+00 EMaxC= 1.00D-01 BMatC= 2.27D-06 BMatP= 2.27D-06
 IDIUse=1 WtCom= 1.00D+00 WtEn= 0.00D+00
 Coeff-Com:  0.100D+01
 Coeff:      0.100D+01
 Gap=     0.139 Goal=   None    Shift=    0.000
 RMSDP=9.16D-06 MaxDP=4.44D-04 DE=-4.82D-05 OVMax= 6.81D-04

 Cycle   9  Pass 1  IDiag  1:
 RMSU=  4.17D-05    CP:  1.00D+00
 E= -1496.41895428972     Delta-E=       -0.000000063319 Rises=F Damp=F
 DIIS: error= 1.00D-04 at cycle   2 NSaved=   2.
 NSaved= 2 IEnMin= 2 EnMin= -1496.41895428972     IErMin= 1 ErrMin= 9.31D-05
 ErrMax= 1.00D-04  0.00D+00 EMaxC= 1.00D-01 BMatC= 1.84D-06 BMatP= 2.27D-06
 IDIUse=3 WtCom= 9.99D-01 WtEn= 1.00D-03
 Coeff-Com:  0.464D+00 0.536D+00
 Coeff-En:   0.490D+00 0.510D+00
 Coeff:      0.464D+00 0.536D+00
 Gap=     0.139 Goal=   None    Shift=    0.000
 RMSDP=5.43D-06 MaxDP=2.29D-04 DE=-6.33D-08 OVMax= 7.61D-04

 Cycle  10  Pass 1  IDiag  1:
 RMSU=  5.41D-06    CP:  1.00D+00  9.91D-01
 E= -1496.41895551255     Delta-E=       -0.000001222828 Rises=F Damp=F
 DIIS: error= 6.75D-05 at cycle   3 NSaved=   3.
 NSaved= 3 IEnMin= 3 EnMin= -1496.41895551255     IErMin= 3 ErrMin= 6.75D-05
 ErrMax= 6.75D-05  0.00D+00 EMaxC= 1.00D-01 BMatC= 7.59D-07 BMatP= 1.84D-06
 IDIUse=1 WtCom= 1.00D+00 WtEn= 0.00D+00
 Coeff-Com:  0.110D-01 0.389D+00 0.600D+00
 Coeff:      0.110D-01 0.389D+00 0.600D+00
 Gap=     0.139 Goal=   None    Shift=    0.000
 RMSDP=2.36D-06 MaxDP=1.07D-04 DE=-1.22D-06 OVMax= 3.24D-04

 Cycle  11  Pass 1  IDiag  1:
 RMSU=  7.19D-07    CP:  1.00D+00  1.00D+00  5.96D-01
 E= -1496.41895637097     Delta-E=       -0.000000858423 Rises=F Damp=F
 DIIS: error= 7.75D-06 at cycle   4 NSaved=   4.
 NSaved= 4 IEnMin= 4 EnMin= -1496.41895637097     IErMin= 4 ErrMin= 7.75D-06
 ErrMax= 7.75D-06  0.00D+00 EMaxC= 1.00D-01 BMatC= 2.50D-08 BMatP= 7.59D-07
 IDIUse=1 WtCom= 1.00D+00 WtEn= 0.00D+00
 Coeff-Com: -0.183D-02 0.230D+00 0.371D+00 0.402D+00
 Coeff:     -0.183D-02 0.230D+00 0.371D+00 0.402D+00
 Gap=     0.139 Goal=   None    Shift=    0.000
 RMSDP=4.62D-07 MaxDP=1.84D-05 DE=-8.58D-07 OVMax= 4.50D-05

 Cycle  12  Pass 1  IDiag  1:
 RMSU=  1.54D-07    CP:  1.00D+00  1.00D+00  6.15D-01  4.11D-01
 E= -1496.41895639739     Delta-E=       -0.000000026419 Rises=F Damp=F
 DIIS: error= 1.13D-06 at cycle   5 NSaved=   5.
 NSaved= 5 IEnMin= 5 EnMin= -1496.41895639739     IErMin= 5 ErrMin= 1.13D-06
 ErrMax= 1.13D-06  0.00D+00 EMaxC= 1.00D-01 BMatC= 8.09D-10 BMatP= 2.50D-08
 IDIUse=1 WtCom= 1.00D+00 WtEn= 0.00D+00
 Coeff-Com: -0.168D-02 0.113D+00 0.184D+00 0.231D+00 0.473D+00
 Coeff:     -0.168D-02 0.113D+00 0.184D+00 0.231D+00 0.473D+00
 Gap=     0.139 Goal=   None    Shift=    0.000
 RMSDP=9.18D-08 MaxDP=2.98D-06 DE=-2.64D-08 OVMax= 1.01D-05

 Cycle  13  Pass 1  IDiag  1:
 RMSU=  6.31D-08    CP:  1.00D+00  1.00D+00  6.14D-01  4.39D-01  5.89D-01
 E= -1496.41895639820     Delta-E=       -0.000000000809 Rises=F Damp=F
 DIIS: error= 4.16D-07 at cycle   6 NSaved=   6.
 NSaved= 6 IEnMin= 6 EnMin= -1496.41895639820     IErMin= 6 ErrMin= 4.16D-07
 ErrMax= 4.16D-07  0.00D+00 EMaxC= 1.00D-01 BMatC= 9.21D-11 BMatP= 8.09D-10
 IDIUse=1 WtCom= 1.00D+00 WtEn= 0.00D+00
 Coeff-Com: -0.835D-03 0.457D-01 0.745D-01 0.989D-01 0.291D+00 0.491D+00
 Coeff:     -0.835D-03 0.457D-01 0.745D-01 0.989D-01 0.291D+00 0.491D+00
 Gap=     0.139 Goal=   None    Shift=    0.000
 RMSDP=2.94D-08 MaxDP=1.92D-06 DE=-8.09D-10 OVMax= 3.39D-06

 Cycle  14  Pass 1  IDiag  1:
 RMSU=  1.44D-08    CP:  1.00D+00  1.00D+00  6.14D-01  4.44D-01  6.64D-01
                    CP:  6.42D-01
 E= -1496.41895639828     Delta-E=       -0.000000000080 Rises=F Damp=F
 DIIS: error= 6.51D-08 at cycle   7 NSaved=   7.
 NSaved= 7 IEnMin= 7 EnMin= -1496.41895639828     IErMin= 7 ErrMin= 6.51D-08
 ErrMax= 6.51D-08  0.00D+00 EMaxC= 1.00D-01 BMatC= 3.05D-12 BMatP= 9.21D-11
 IDIUse=1 WtCom= 1.00D+00 WtEn= 0.00D+00
 Coeff-Com: -0.282D-03 0.144D-01 0.234D-01 0.318D-01 0.103D+00 0.232D+00
 Coeff-Com:  0.597D+00
 Coeff:     -0.282D-03 0.144D-01 0.234D-01 0.318D-01 0.103D+00 0.232D+00
 Coeff:      0.597D+00
 Gap=     0.139 Goal=   None    Shift=    0.000
 RMSDP=6.20D-09 MaxDP=2.57D-07 DE=-8.00D-11 OVMax= 6.80D-07

 SCF Done:  E(RB3LYP) =  -1496.41895640     A.U. after   14 cycles
            NFock= 14  Conv=0.62D-08     -V/T= 2.0076
 KE= 1.485108738606D+03 PE=-9.087216152919D+03 EE= 3.307879885950D+03
 Leave Link  502 at Mon Jan 19 14:13:36 2026, MaxMem=  8053063680 cpu:             659.2 elap:              41.3
 (Enter /appl/Gaussian16/AVX_revB01/g16/l508.exe)
 QCSCF skips out because SCF is already converged.
 Leave Link  508 at Mon Jan 19 14:13:36 2026, MaxMem=  8053063680 cpu:               0.2 elap:               0.1
 (Enter /appl/Gaussian16/AVX_revB01/g16/l601.exe)
 Copying SCF densities to generalized density rwf, IOpCl= 0 IROHF=0.

 **********************************************************************

            Population analysis using the SCF Density.

 **********************************************************************

 Orbital symmetries:
       Occupied  (A) (A) (A) (A) (A) (A) (A) (A) (A) (A) (A) (A)
                 (A) (A) (A) (A) (A) (A) (A) (A) (A) (A) (A) (A)
                 (A) (A) (A) (A) (A) (A) (A) (A) (A) (A) (A) (A)
                 (A) (A) (A) (A) (A) (A) (A) (A) (A) (A) (A) (A)
                 (A) (A) (A) (A) (A) (A) (A) (A) (A) (A) (A) (A)
                 (A) (A) (A) (A) (A) (A) (A) (A) (A) (A) (A) (A)
                 (A) (A) (A) (A) (A) (A) (A) (A) (A) (A) (A) (A)
                 (A) (A) (A) (A) (A) (A) (A) (A) (A) (A) (A) (A)
                 (A) (A) (A) (A) (A) (A) (A) (A) (A)
       Virtual   (A) (A) (A) (A) (A) (A) (A) (A) (A) (A) (A) (A)
                 (A) (A) (A) (A) (A) (A) (A) (A) (A) (A) (A) (A)
                 (A) (A) (A) (A) (A) (A) (A) (A) (A) (A) (A) (A)
                 (A) (A) (A) (A) (A) (A) (A) (A) (A) (A) (A) (A)
                 (A) (A) (A) (A) (A) (A) (A) (A) (A) (A) (A) (A)
                 (A) (A) (A) (A) (A) (A) (A) (A) (A) (A) (A) (A)
                 (A) (A) (A) (A) (A) (A) (A) (A) (A) (A) (A) (A)
                 (A) (A) (A) (A) (A) (A) (A) (A) (A) (A) (A) (A)
                 (A) (A) (A) (A) (A) (A) (A) (A) (A) (A) (A) (A)
                 (A) (A) (A) (A) (A) (A) (A) (A) (A) (A) (A) (A)
                 (A) (A) (A) (A) (A) (A) (A) (A) (A) (A) (A) (A)
                 (A) (A) (A) (A) (A) (A) (A) (A) (A) (A) (A) (A)
                 (A) (A) (A) (A) (A) (A) (A) (A) (A) (A) (A) (A)
                 (A) (A) (A) (A) (A) (A) (A) (A) (A) (A) (A) (A)
                 (A) (A) (A) (A) (A) (A) (A) (A) (A) (A) (A) (A)
                 (A) (A) (A) (A) (A) (A) (A) (A) (A) (A) (A) (A)
                 (A) (A) (A) (A) (A) (A) (A) (A) (A) (A) (A) (A)
                 (A) (A) (A) (A) (A) (A) (A) (A) (A) (A) (A) (A)
                 (A) (A) (A) (A) (A) (A) (A) (A) (A) (A) (A) (A)
                 (A) (A) (A) (A) (A) (A) (A) (A) (A) (A) (A) (A)
                 (A) (A) (A) (A) (A) (A) (A) (A) (A) (A) (A) (A)
                 (A) (A) (A) (A) (A) (A) (A) (A) (A) (A) (A) (A)
                 (A) (A) (A) (A) (A) (A) (A) (A) (A) (A) (A) (A)
                 (A) (A) (A) (A) (A) (A) (A) (A) (A) (A) (A) (A)
                 (A) (A) (A) (A) (A) (A) (A) (A) (A) (A) (A) (A)
                 (A) (A) (A) (A) (A) (A) (A) (A) (A) (A) (A) (A)
                 (A) (A) (A) (A) (A) (A) (A) (A) (A) (A) (A) (A)
                 (A) (A) (A) (A) (A) (A) (A) (A) (A) (A) (A) (A)
                 (A) (A) (A) (A) (A) (A) (A) (A) (A) (A) (A) (A)
                 (A) (A) (A) (A) (A) (A) (A) (A) (A) (A) (A) (A)
                 (A) (A) (A) (A) (A) (A) (A) (A) (A) (A) (A) (A)
                 (A) (A) (A) (A) (A) (A) (A) (A)
 The electronic state is 1-A.
 Alpha  occ. eigenvalues --  -77.19983 -19.18212 -19.18210 -10.25930 -10.25911
 Alpha  occ. eigenvalues --  -10.19717 -10.19716 -10.19062 -10.19060 -10.18955
 Alpha  occ. eigenvalues --  -10.18953 -10.18573 -10.18572 -10.18472 -10.18470
 Alpha  occ. eigenvalues --  -10.18257 -10.18257 -10.18229 -10.18228 -10.18223
 Alpha  occ. eigenvalues --  -10.18222 -10.18045 -10.17997 -10.17325 -10.17303
 Alpha  occ. eigenvalues --  -10.17266 -10.17263 -10.17203 -10.17201  -6.65400
 Alpha  occ. eigenvalues --   -4.81818  -4.81639  -4.81457  -1.09991  -1.02784
 Alpha  occ. eigenvalues --   -0.86889  -0.86065  -0.85469  -0.83419  -0.79124
 Alpha  occ. eigenvalues --   -0.78846  -0.76751  -0.74992  -0.74622  -0.74537
 Alpha  occ. eigenvalues --   -0.73593  -0.71779  -0.70424  -0.66580  -0.65453
 Alpha  occ. eigenvalues --   -0.63314  -0.62531  -0.60590  -0.60360  -0.59557
 Alpha  occ. eigenvalues --   -0.59061  -0.56676  -0.56300  -0.53614  -0.52444
 Alpha  occ. eigenvalues --   -0.52386  -0.50998  -0.50083  -0.49305  -0.47919
 Alpha  occ. eigenvalues --   -0.47360  -0.46463  -0.45527  -0.44870  -0.44858
 Alpha  occ. eigenvalues --   -0.44446  -0.44121  -0.42794  -0.42722  -0.42389
 Alpha  occ. eigenvalues --   -0.41931  -0.41724  -0.41441  -0.41353  -0.40860
 Alpha  occ. eigenvalues --   -0.38090  -0.37928  -0.37105  -0.36831  -0.36702
 Alpha  occ. eigenvalues --   -0.36052  -0.35573  -0.35189  -0.35080  -0.34751
 Alpha  occ. eigenvalues --   -0.34345  -0.34088  -0.33086  -0.32696  -0.32598
 Alpha  occ. eigenvalues --   -0.30737  -0.29717  -0.27981  -0.26047  -0.25052
 Alpha  occ. eigenvalues --   -0.25012  -0.24011  -0.23046  -0.22365  -0.17538
 Alpha virt. eigenvalues --   -0.03600   0.00080   0.00138   0.00178   0.00443
 Alpha virt. eigenvalues --    0.01085   0.02756   0.05509   0.05921   0.07364
 Alpha virt. eigenvalues --    0.09372   0.09681   0.10177   0.10906   0.11248
 Alpha virt. eigenvalues --    0.11995   0.12726   0.13234   0.13874   0.14241
 Alpha virt. eigenvalues --    0.15131   0.15581   0.15848   0.16132   0.16490
 Alpha virt. eigenvalues --    0.16917   0.17363   0.17937   0.18530   0.18643
 Alpha virt. eigenvalues --    0.19039   0.19185   0.19620   0.19975   0.20586
 Alpha virt. eigenvalues --    0.21478   0.22156   0.22393   0.22598   0.23011
 Alpha virt. eigenvalues --    0.23743   0.24709   0.27651   0.27870   0.28143
 Alpha virt. eigenvalues --    0.30371   0.30829   0.31288   0.32085   0.32158
 Alpha virt. eigenvalues --    0.32360   0.33075   0.34213   0.34247   0.34889
 Alpha virt. eigenvalues --    0.35392   0.35579   0.37718   0.38248   0.39426
 Alpha virt. eigenvalues --    0.40626   0.43399   0.43675   0.45561   0.45985
 Alpha virt. eigenvalues --    0.49399   0.49564   0.51058   0.51714   0.52286
 Alpha virt. eigenvalues --    0.52441   0.52685   0.52978   0.53749   0.54069
 Alpha virt. eigenvalues --    0.54421   0.54909   0.55477   0.56118   0.56714
 Alpha virt. eigenvalues --    0.56998   0.57265   0.57743   0.58224   0.58338
 Alpha virt. eigenvalues --    0.59259   0.59340   0.59617   0.59929   0.60280
 Alpha virt. eigenvalues --    0.60650   0.60888   0.61106   0.61279   0.61464
 Alpha virt. eigenvalues --    0.61614   0.61674   0.62069   0.62270   0.62549
 Alpha virt. eigenvalues --    0.62722   0.63551   0.63676   0.64289   0.64646
 Alpha virt. eigenvalues --    0.65874   0.66526   0.67301   0.67935   0.68386
 Alpha virt. eigenvalues --    0.69135   0.70322   0.70889   0.71883   0.72672
 Alpha virt. eigenvalues --    0.74534   0.75471   0.76328   0.76803   0.77165
 Alpha virt. eigenvalues --    0.78230   0.79184   0.80016   0.80972   0.81427
 Alpha virt. eigenvalues --    0.81579   0.82460   0.83456   0.83496   0.83958
 Alpha virt. eigenvalues --    0.84731   0.84764   0.84934   0.85124   0.85676
 Alpha virt. eigenvalues --    0.86219   0.86501   0.86823   0.87552   0.87913
 Alpha virt. eigenvalues --    0.88444   0.89911   0.90394   0.91018   0.91503
 Alpha virt. eigenvalues --    0.91942   0.92264   0.93824   0.93889   0.94540
 Alpha virt. eigenvalues --    0.95381   0.95505   0.96139   0.96352   0.96669
 Alpha virt. eigenvalues --    0.97178   0.97339   0.98183   0.99030   1.01062
 Alpha virt. eigenvalues --    1.01471   1.01975   1.02361   1.02889   1.03722
 Alpha virt. eigenvalues --    1.05527   1.06037   1.08084   1.08207   1.09098
 Alpha virt. eigenvalues --    1.10123   1.10253   1.11829   1.13098   1.13763
 Alpha virt. eigenvalues --    1.14195   1.14611   1.15359   1.16036   1.16816
 Alpha virt. eigenvalues --    1.17916   1.19505   1.19745   1.19887   1.20366
 Alpha virt. eigenvalues --    1.21369   1.23065   1.25087   1.26294   1.27251
 Alpha virt. eigenvalues --    1.27610   1.29210   1.30888   1.31764   1.32534
 Alpha virt. eigenvalues --    1.34738   1.35728   1.37010   1.38606   1.39315
 Alpha virt. eigenvalues --    1.40767   1.41232   1.41910   1.43007   1.44384
 Alpha virt. eigenvalues --    1.45321   1.45481   1.46495   1.46685   1.47556
 Alpha virt. eigenvalues --    1.47691   1.48312   1.48865   1.49608   1.49805
 Alpha virt. eigenvalues --    1.50356   1.50581   1.51015   1.52330   1.52639
 Alpha virt. eigenvalues --    1.53085   1.54056   1.55696   1.57975   1.58725
 Alpha virt. eigenvalues --    1.65465   1.65905   1.69050   1.73138   1.75287
 Alpha virt. eigenvalues --    1.77134   1.79332   1.79841   1.80094   1.81635
 Alpha virt. eigenvalues --    1.81999   1.82483   1.82864   1.83898   1.84006
 Alpha virt. eigenvalues --    1.85135   1.85666   1.86678   1.87334   1.88214
 Alpha virt. eigenvalues --    1.90815   1.91217   1.91938   1.92094   1.92342
 Alpha virt. eigenvalues --    1.93065   1.94182   1.94678   1.95036   1.95796
 Alpha virt. eigenvalues --    1.97051   1.97367   1.98928   2.00203   2.00965
 Alpha virt. eigenvalues --    2.01694   2.02874   2.05486   2.05922   2.06754
 Alpha virt. eigenvalues --    2.07913   2.08173   2.09481   2.10997   2.11400
 Alpha virt. eigenvalues --    2.14471   2.14716   2.15112   2.15659   2.16388
 Alpha virt. eigenvalues --    2.16661   2.17016   2.17541   2.18142   2.18439
 Alpha virt. eigenvalues --    2.21236   2.21941   2.22565   2.23991   2.24985
 Alpha virt. eigenvalues --    2.25629   2.26201   2.26997   2.27718   2.29797
 Alpha virt. eigenvalues --    2.30576   2.30786   2.30950   2.32717   2.32816
 Alpha virt. eigenvalues --    2.33937   2.34378   2.34683   2.34869   2.35867
 Alpha virt. eigenvalues --    2.38011   2.39163   2.40571   2.43947   2.44195
 Alpha virt. eigenvalues --    2.44548   2.45437   2.47740   2.47912   2.50028
 Alpha virt. eigenvalues --    2.53892   2.56140   2.56853   2.57460   2.61080
 Alpha virt. eigenvalues --    2.61135   2.63024   2.64202   2.65280   2.66877
 Alpha virt. eigenvalues --    2.67343   2.67836   2.68788   2.70088   2.73876
 Alpha virt. eigenvalues --    2.74454   2.75264   2.75970   2.76269   2.77270
 Alpha virt. eigenvalues --    2.77868   2.77878   2.78749   2.79451   2.83044
 Alpha virt. eigenvalues --    2.86844   2.87086   2.87718   2.88292   2.88989
 Alpha virt. eigenvalues --    2.95626   2.98501   2.99986   3.00333   3.13122
 Alpha virt. eigenvalues --    3.14225   3.25724   3.26695   3.45615   3.45616
 Alpha virt. eigenvalues --    3.48809   3.61211   4.00883   4.10321   4.10831
 Alpha virt. eigenvalues --    4.12246   4.12324   4.13123   4.13144   4.13794
 Alpha virt. eigenvalues --    4.15575   4.16862   4.17835   4.20718   4.24278
 Alpha virt. eigenvalues --    4.25755   4.29419   4.31059   4.33247   4.35905
 Alpha virt. eigenvalues --    4.38024   4.38621   4.43749   4.44662   4.45979
 Alpha virt. eigenvalues --    4.48588   4.62209   4.73046   4.73831   4.79907
          Condensed to atoms (all electrons):
 Mulliken charges:
               1
     1  C   -0.527971
     2  C    0.179720
     3  C   -0.184806
     4  C   -0.176412
     5  C    0.080907
     6  C    0.058222
     7  C   -0.176314
     8  C   -0.221959
     9  C    0.154263
    10  C   -0.165434
    11  C   -0.133064
    12  C   -0.126296
    13  C   -0.143345
    14  C   -0.212399
    15  P    0.999127
    16  O   -0.546085
    17  C   -0.069280
    18  C   -0.069303
    19  O   -0.546234
    20  C   -0.222003
    21  C    0.154210
    22  C   -0.165446
    23  C   -0.133094
    24  C   -0.126289
    25  C   -0.143360
    26  C   -0.212401
    27  C   -0.176368
    28  C   -0.176661
    29  C   -0.184932
    30  H    0.154576
    31  H    0.163660
    32  H    0.154393
    33  H    0.115387
    34  H    0.121776
    35  H    0.146096
    36  H    0.130409
    37  H    0.128403
    38  H    0.125361
    39  H    0.123713
    40  H    0.149253
    41  H    0.169331
    42  H    0.160463
    43  H    0.160443
    44  H    0.169297
    45  H    0.130427
    46  H    0.128396
    47  H    0.125352
    48  H    0.123715
    49  H    0.149329
    50  H    0.146025
    51  H    0.121713
    52  H    0.115489
 Sum of Mulliken charges =  -0.00000
 Mulliken charges with hydrogens summed into heavy atoms:
               1
     1  C   -0.055341
     2  C    0.179720
     3  C   -0.069418
     4  C   -0.054636
     5  C    0.080907
     6  C    0.058222
     7  C   -0.030217
     8  C   -0.221959
     9  C    0.154263
    10  C   -0.035025
    11  C   -0.004662
    12  C   -0.000934
    13  C   -0.019632
    14  C   -0.063145
    15  P    0.999127
    16  O   -0.546085
    17  C    0.260513
    18  C    0.260436
    19  O   -0.546234
    20  C   -0.222003
    21  C    0.154210
    22  C   -0.035019
    23  C   -0.004698
    24  C   -0.000938
    25  C   -0.019645
    26  C   -0.063073
    27  C   -0.030343
    28  C   -0.054949
    29  C   -0.069443
 Electronic spatial extent (au):  <R**2>=          13625.5768
 Charge=              0.0000 electrons
 Dipole moment (field-independent basis, Debye):
    X=              2.8335    Y=              0.0307    Z=             -0.0342  Tot=              2.8339
 Quadrupole moment (field-independent basis, Debye-Ang):
   XX=           -146.8229   YY=           -162.2205   ZZ=           -179.9777
   XY=             -0.1522   XZ=              0.2238   YZ=              4.5538
 Traceless Quadrupole moment (field-independent basis, Debye-Ang):
   XX=             16.1841   YY=              0.7866   ZZ=            -16.9707
   XY=             -0.1522   XZ=              0.2238   YZ=              4.5538
 Octapole moment (field-independent basis, Debye-Ang**2):
  XXX=             77.0209  YYY=             -0.3045  ZZZ=              0.0914  XYY=             24.2413
  XXY=              1.1830  XXZ=             -1.3841  XZZ=              5.0903  YZZ=              0.5364
  YYZ=             -0.3620  XYZ=            -31.6914
 Hexadecapole moment (field-independent basis, Debye-Ang**3):
 XXXX=          -9516.2856 YYYY=          -7144.4749 ZZZZ=           -617.3960 XXXY=             -6.6657
 XXXZ=              9.5193 YYYX=              3.0485 YYYZ=            156.5179 ZZZX=             -0.8747
 ZZZY=             13.3120 XXYY=          -2877.6430 XXZZ=          -1837.3601 YYZZ=          -1433.9038
 XXYZ=            -12.5565 YYXZ=              1.2090 ZZXY=             -3.7608
 N-N= 2.797808571965D+03 E-N=-9.087216147306D+03  KE= 1.485108738606D+03
 No NMR shielding tensors so no spin-rotation constants.
 Leave Link  601 at Mon Jan 19 14:13:36 2026, MaxMem=  8053063680 cpu:               2.9 elap:               0.2
 (Enter /appl/Gaussian16/AVX_revB01/g16/l701.exe)
 ... and contract with generalized density number  0.
 Compute integral first derivatives.
 Leave Link  701 at Mon Jan 19 14:13:37 2026, MaxMem=  8053063680 cpu:               3.0 elap:               0.2
 (Enter /appl/Gaussian16/AVX_revB01/g16/l702.exe)
 L702 exits ... SP integral derivatives will be done elsewhere.
 Leave Link  702 at Mon Jan 19 14:13:37 2026, MaxMem=  8053063680 cpu:               0.6 elap:               0.1
 (Enter /appl/Gaussian16/AVX_revB01/g16/l703.exe)
 Integral derivatives from FoFJK, PRISM(SPDF).
 Compute integral first derivatives, UseDBF=F ICtDFT=           0.
 Calling FoFJK, ICntrl=      2127 FMM=F ISym2X=0 I1Cent= 0 IOpClX= 0 NMat=1 NMatS=1 NMatT=0.
 FoFJK:  IHMeth= 1 ICntrl=    2127 DoSepK=F KAlg= 0 I1Cent=           0 FoldK=F
 IRaf=         0 NMat=       1 IRICut=       1 DoRegI=T DoRafI=F ISym2E= 0 IDoP0=0 IntGTp=1.
 FoFCou: FMM=F IPFlag=           0 FMFlag=      100000 FMFlg1=         800
         NFxFlg=           0 DoJE=F BraDBF=F KetDBF=F FulRan=T
         wScrn=  0.000000 ICntrl=      2127 IOpCl=  0 I1Cent=           0 NGrid=           0
         NMat0=    1 NMatS0=      1 NMatT0=    0 NMatD0=    1 NMtDS0=    0 NMtDT0=    0
 Symmetry not used in FoFCou.
 Leave Link  703 at Mon Jan 19 14:13:50 2026, MaxMem=  8053063680 cpu:             213.3 elap:              13.3
 (Enter /appl/Gaussian16/AVX_revB01/g16/l716.exe)
 Dipole        = 1.11479901D+00 1.20634342D-02-1.34385306D-02
 ***** Axes restored to original set *****
 -------------------------------------------------------------------
 Center     Atomic                   Forces (Hartrees/Bohr)
 Number     Number              X              Y              Z
 -------------------------------------------------------------------
      1        6           0.002031679    0.000155141    0.001092200
      2        6          -0.005679477   -0.001740604   -0.000711098
      3        6          -0.001001009   -0.004605072   -0.001431968
      4        6           0.003302761   -0.003450061   -0.001860253
      5        6           0.003994927    0.001561459   -0.000099872
      6        6          -0.008151564   -0.003288046    0.000247020
      7        6          -0.002790686   -0.000319044   -0.000696026
      8        6           0.015949198   -0.010499680    0.001294934
      9        6          -0.000010094   -0.000089376    0.000582888
     10        6          -0.004083371   -0.002755754    0.002386939
     11        6          -0.004702629    0.004987752    0.001683657
     12        6           0.000624221    0.007258780   -0.000954186
     13        6           0.005195104    0.003981320   -0.002840162
     14        6           0.004221181   -0.001138949   -0.004492919
     15       15          -0.016626798   -0.006837493    0.000712861
     16        8          -0.008679575   -0.002474116   -0.011106057
     17        6           0.013888941    0.004503550    0.004562457
     18        6           0.012876770    0.006278344   -0.005455648
     19        8          -0.007434275   -0.004012578    0.011501531
     20        6           0.004055782    0.018613227   -0.002018313
     21        6          -0.000038498    0.000192959   -0.000515336
     22        6          -0.004961606   -0.000909804   -0.002090206
     23        6          -0.000071542   -0.006903632   -0.001544883
     24        6           0.005559866   -0.004795677    0.000773138
     25        6           0.006624855    0.000795490    0.002433794
     26        6           0.002507503    0.003773049    0.004230065
     27        6          -0.002133227   -0.001533054    0.000847845
     28        6           0.000276393    0.004467057    0.002370288
     29        6          -0.003911483    0.002834015    0.001279107
     30        1          -0.002903675   -0.003102343   -0.003164131
     31        1          -0.003411325   -0.003460256    0.003418571
     32        1          -0.004912624    0.002039273    0.000065483
     33        1          -0.000969014   -0.004166789   -0.002446210
     34        1           0.003159427   -0.001967415   -0.002558964
     35        1          -0.002621488    0.002102927   -0.000658461
     36        1          -0.002976448   -0.001645074    0.003038609
     37        1          -0.003338218    0.002646895    0.002157777
     38        1           0.000217539    0.004852962   -0.000579213
     39        1           0.003247621    0.001532264   -0.002695585
     40        1           0.002175690   -0.001592587   -0.002626036
     41        1           0.000096437   -0.000922842   -0.001393827
     42        1           0.000834948   -0.000344578   -0.000946720
     43        1           0.000415710    0.000838715    0.000902035
     44        1          -0.000485300    0.000764480    0.001416692
     45        1          -0.003454831   -0.000952081   -0.002822425
     46        1          -0.000700983   -0.004268347   -0.002017298
     47        1           0.003547336   -0.003331660    0.000452467
     48        1           0.003560360    0.001191939    0.002470234
     49        1           0.000609117    0.002731162    0.002543869
     50        1          -0.000420215   -0.003342813    0.000748777
     51        1           0.001014635    0.003754503    0.002271576
     52        1          -0.003518044    0.002592461    0.002240980
 -------------------------------------------------------------------
 Cartesian Forces:  Max     0.018613227 RMS     0.004424280
 Leave Link  716 at Mon Jan 19 14:13:50 2026, MaxMem=  8053063680 cpu:               0.6 elap:               0.1
 (Enter /appl/Gaussian16/AVX_revB01/g16/l103.exe)

 GradGradGradGradGradGradGradGradGradGradGradGradGradGradGradGradGradGrad
 Berny optimization.
 FormGI is forming the generalized inverse of G from B-inverse, IUseBI=4.
 Internal  Forces:  Max     0.018477200 RMS     0.004574169
 Search for a local minimum.
 Step number   1 out of a maximum of  300
 All quantities printed in internal units (Hartrees-Bohrs-Radians)
 RMS Force = .45742D-02 SwitMx=.10000D-02 MixMth= 1
 Mixed Optimization -- RFO/linear search
 Second derivative matrix not updated -- first step.
 ITU=  0
     Eigenvalues ---    0.00755   0.00780   0.01122   0.01297   0.01298
     Eigenvalues ---    0.01632   0.01854   0.01859   0.01879   0.01881
     Eigenvalues ---    0.01889   0.01889   0.01988   0.02168   0.02168
     Eigenvalues ---    0.02173   0.02195   0.02216   0.02231   0.02231
     Eigenvalues ---    0.02244   0.02247   0.02249   0.02249   0.02252
     Eigenvalues ---    0.02259   0.02270   0.02276   0.02284   0.02284
     Eigenvalues ---    0.02286   0.02286   0.02295   0.02296   0.02299
     Eigenvalues ---    0.02300   0.02309   0.02310   0.02315   0.02315
     Eigenvalues ---    0.02402   0.04549   0.04882   0.05702   0.05985
     Eigenvalues ---    0.06384   0.07239   0.07398   0.10117   0.10571
     Eigenvalues ---    0.11283   0.11331   0.12902   0.12975   0.13729
     Eigenvalues ---    0.15985   0.15985   0.15992   0.15994   0.15995
     Eigenvalues ---    0.15996   0.15996   0.15997   0.15999   0.15999
     Eigenvalues ---    0.16000   0.16000   0.16000   0.16000   0.16000
     Eigenvalues ---    0.16000   0.16000   0.16000   0.16000   0.22000
     Eigenvalues ---    0.22000   0.22000   0.22001   0.22001   0.22545
     Eigenvalues ---    0.22669   0.22958   0.23245   0.23468   0.23468
     Eigenvalues ---    0.23497   0.23999   0.24923   0.24930   0.24991
     Eigenvalues ---    0.24991   0.24995   0.25000   0.25000   0.26899
     Eigenvalues ---    0.30415   0.30847   0.32486   0.34262   0.34264
     Eigenvalues ---    0.34414   0.34414   0.34702   0.35066   0.35068
     Eigenvalues ---    0.35378   0.35630   0.35635   0.35824   0.35825
     Eigenvalues ---    0.35853   0.35854   0.35919   0.35919   0.35928
     Eigenvalues ---    0.35928   0.36006   0.36007   0.36020   0.36021
     Eigenvalues ---    0.36022   0.36025   0.36987   0.36988   0.40749
     Eigenvalues ---    0.40870   0.42849   0.42851   0.43094   0.43288
     Eigenvalues ---    0.43311   0.43312   0.44067   0.44523   0.44818
     Eigenvalues ---    0.45068   0.46931   0.46931   0.47056   0.47145
     Eigenvalues ---    0.47405   0.47418   0.47419   0.47943   0.48331
     Eigenvalues ---    0.48332   0.48367   0.48834   0.48838   0.48890
 RFO step:  Lambda=-1.59685382D-02 EMin= 7.55265683D-03
 Linear search not attempted -- first point.
 Iteration  1 RMS(Cart)=  0.08891111 RMS(Int)=  0.00159974
 Iteration  2 RMS(Cart)=  0.00397306 RMS(Int)=  0.00007174
 Iteration  3 RMS(Cart)=  0.00001141 RMS(Int)=  0.00007167
 Iteration  4 RMS(Cart)=  0.00000000 RMS(Int)=  0.00007167
 ITry= 1 IFail=0 DXMaxC= 4.05D-01 DCOld= 1.00D+10 DXMaxT= 3.00D-01 DXLimC= 3.00D+00 Rises=F
 Variable       Old X    -DE/DX   Delta X   Delta X   Delta X     New X
                                 (Linear)    (Quad)   (Total)
[...]
     21          6           0        1.082982    2.761616   -0.120284
     22          6           0        0.600950    3.751665    0.755588
     23          6           0        1.118854    5.045388    0.734024
     24          6           0        2.143326    5.379277   -0.154234
     25          6           0        2.636828    4.407227   -1.025500
     26          6           0        2.111134    3.114591   -1.014024
     27          6           0       -0.894857    1.211900   -0.067031
     28          6           0       -3.809393   -0.985006   -0.695088
     29          6           0       -5.202533   -0.990861   -0.686346
     30          1           0       -7.852576    0.432505    0.901093
     31          1           0       -7.824524    0.595560   -0.856407
     32          1           0       -7.851096   -1.011333   -0.125693
     33          1           0       -5.740093    1.723652    1.263777
     34          1           0       -3.284589    1.715110    1.285117
     35          1           0       -1.475790   -2.130937    0.151986
     36          1           0       -0.159883   -3.495037   -1.467189
     37          1           0        0.756754   -5.789597   -1.420323
     38          1           0        2.583605   -6.375148    0.167317
     39          1           0        3.451051   -4.642191    1.728875
     40          1           0        2.490330   -2.365413    1.719898
     41          1           0        4.182623    1.376856    0.703167
     42          1           0        4.683938   -0.204686    1.371646
     43          1           0        4.680161    0.227539   -1.378783
     44          1           0        4.188605   -1.356667   -0.709398
     45          1           0       -0.175804    3.492096    1.469504
     46          1           0        0.728957    5.791345    1.421923
     47          1           0        2.550525    6.386673   -0.168150
     48          1           0        3.424650    4.658587   -1.731381
     49          1           0        2.475643    2.376900   -1.721633
     50          1           0       -1.487063    2.121535   -0.147824
     51          1           0       -3.279252   -1.739645   -1.270292
     52          1           0       -5.734519   -1.762390   -1.239584
 ---------------------------------------------------------------------
 Rotational constants (GHZ):           0.1630221           0.1267716           0.0754225
 Leave Link  202 at Mon Jan 19 14:21:39 2026, MaxMem=  8053063680 cpu:               0.4 elap:               0.1
 (Enter /appl/Gaussian16/AVX_revB01/g16/l601.exe)
 Copying SCF densities to generalized density rwf, IOpCl= 0 IROHF=0.

 **********************************************************************

            Population analysis using the SCF Density.

 **********************************************************************

 Orbital symmetries:
       Occupied  (A) (A) (A) (A) (A) (A) (A) (A) (A) (A) (A) (A)
                 (A) (A) (A) (A) (A) (A) (A) (A) (A) (A) (A) (A)
                 (A) (A) (A) (A) (A) (A) (A) (A) (A) (A) (A) (A)
                 (A) (A) (A) (A) (A) (A) (A) (A) (A) (A) (A) (A)
                 (A) (A) (A) (A) (A) (A) (A) (A) (A) (A) (A) (A)
                 (A) (A) (A) (A) (A) (A) (A) (A) (A) (A) (A) (A)
                 (A) (A) (A) (A) (A) (A) (A) (A) (A) (A) (A) (A)
                 (A) (A) (A) (A) (A) (A) (A) (A) (A) (A) (A) (A)
                 (A) (A) (A) (A) (A) (A) (A) (A) (A)
       Virtual   (A) (A) (A) (A) (A) (A) (A) (A) (A) (A) (A) (A)
                 (A) (A) (A) (A) (A) (A) (A) (A) (A) (A) (A) (A)
                 (A) (A) (A) (A) (A) (A) (A) (A) (A) (A) (A) (A)
                 (A) (A) (A) (A) (A) (A) (A) (A) (A) (A) (A) (A)
                 (A) (A) (A) (A) (A) (A) (A) (A) (A) (A) (A) (A)
                 (A) (A) (A) (A) (A) (A) (A) (A) (A) (A) (A) (A)
                 (A) (A) (A) (A) (A) (A) (A) (A) (A) (A) (A) (A)
                 (A) (A) (A) (A) (A) (A) (A) (A) (A) (A) (A) (A)
                 (A) (A) (A) (A) (A) (A) (A) (A) (A) (A) (A) (A)
                 (A) (A) (A) (A) (A) (A) (A) (A) (A) (A) (A) (A)
                 (A) (A) (A) (A) (A) (A) (A) (A) (A) (A) (A) (A)
                 (A) (A) (A) (A) (A) (A) (A) (A) (A) (A) (A) (A)
                 (A) (A) (A) (A) (A) (A) (A) (A) (A) (A) (A) (A)
                 (A) (A) (A) (A) (A) (A) (A) (A) (A) (A) (A) (A)
                 (A) (A) (A) (A) (A) (A) (A) (A) (A) (A) (A) (A)
                 (A) (A) (A) (A) (A) (A) (A) (A) (A) (A) (A) (A)
                 (A) (A) (A) (A) (A) (A) (A) (A) (A) (A) (A) (A)
                 (A) (A) (A) (A) (A) (A) (A) (A) (A) (A) (A) (A)
                 (A) (A) (A) (A) (A) (A) (A) (A) (A) (A) (A) (A)
                 (A) (A) (A) (A) (A) (A) (A) (A) (A) (A) (A) (A)
                 (A) (A) (A) (A) (A) (A) (A) (A) (A) (A) (A) (A)
                 (A) (A) (A) (A) (A) (A) (A) (A) (A) (A) (A) (A)
                 (A) (A) (A) (A) (A) (A) (A) (A) (A) (A) (A) (A)
                 (A) (A) (A) (A) (A) (A) (A) (A) (A) (A) (A) (A)
                 (A) (A) (A) (A) (A) (A) (A) (A) (A) (A) (A) (A)
                 (A) (A) (A) (A) (A) (A) (A) (A) (A) (A) (A) (A)
                 (A) (A) (A) (A) (A) (A) (A) (A) (A) (A) (A) (A)
                 (A) (A) (A) (A) (A) (A) (A) (A) (A) (A) (A) (A)
                 (A) (A) (A) (A) (A) (A) (A) (A) (A) (A) (A) (A)
                 (A) (A) (A) (A) (A) (A) (A) (A) (A) (A) (A) (A)
                 (A) (A) (A) (A) (A) (A) (A) (A) (A) (A) (A) (A)
                 (A) (A) (A) (A) (A) (A) (A) (A)
 The electronic state is 1-A.
 Alpha  occ. eigenvalues --  -77.19758 -19.17986 -19.17985 -10.25995 -10.25974
 Alpha  occ. eigenvalues --  -10.20148 -10.20146 -10.19441 -10.19441 -10.19151
 Alpha  occ. eigenvalues --  -10.19150 -10.18874 -10.18873 -10.18836 -10.18834
 Alpha  occ. eigenvalues --  -10.18728 -10.18726 -10.18613 -10.18612 -10.18548
 Alpha  occ. eigenvalues --  -10.18540 -10.18538 -10.18480 -10.17778 -10.17669
 Alpha  occ. eigenvalues --  -10.17621 -10.17618 -10.17563 -10.17560  -6.65170
 Alpha  occ. eigenvalues --   -4.81563  -4.81422  -4.81242  -1.08590  -1.01421
 Alpha  occ. eigenvalues --   -0.86198  -0.85358  -0.84805  -0.82913  -0.78649
 Alpha  occ. eigenvalues --   -0.78212  -0.76405  -0.74535  -0.74138  -0.74098
 Alpha  occ. eigenvalues --   -0.73160  -0.71375  -0.70329  -0.66507  -0.64914
 Alpha  occ. eigenvalues --   -0.62719  -0.61892  -0.60111  -0.60002  -0.59207
 Alpha  occ. eigenvalues --   -0.58879  -0.56460  -0.55997  -0.52879  -0.52274
 Alpha  occ. eigenvalues --   -0.51952  -0.50649  -0.49622  -0.49067  -0.47548
 Alpha  occ. eigenvalues --   -0.46237  -0.46158  -0.45144  -0.44512  -0.44508
 Alpha  occ. eigenvalues --   -0.44303  -0.43746  -0.42938  -0.42639  -0.41853
 Alpha  occ. eigenvalues --   -0.41600  -0.41540  -0.41218  -0.41024  -0.40511
 Alpha  occ. eigenvalues --   -0.37946  -0.37811  -0.36550  -0.36425  -0.36290
 Alpha  occ. eigenvalues --   -0.35643  -0.35508  -0.35179  -0.34949  -0.34376
 Alpha  occ. eigenvalues --   -0.34125  -0.34051  -0.32822  -0.32722  -0.32337
 Alpha  occ. eigenvalues --   -0.30642  -0.29843  -0.27456  -0.25503  -0.24790
 Alpha  occ. eigenvalues --   -0.24787  -0.23773  -0.23182  -0.22651  -0.17792
 Alpha virt. eigenvalues --   -0.03222  -0.00130  -0.00106   0.00035   0.00204
 Alpha virt. eigenvalues --    0.00943   0.01751   0.05505   0.05555   0.08384
 Alpha virt. eigenvalues --    0.09235   0.09620   0.10048   0.11015   0.11723
 Alpha virt. eigenvalues --    0.11986   0.12429   0.12565   0.13836   0.14110
 Alpha virt. eigenvalues --    0.14859   0.14967   0.15289   0.15880   0.16187
 Alpha virt. eigenvalues --    0.16378   0.16606   0.17312   0.17744   0.18375
 Alpha virt. eigenvalues --    0.18609   0.18750   0.19219   0.19349   0.19930
 Alpha virt. eigenvalues --    0.20263   0.20794   0.21399   0.22437   0.22947
 Alpha virt. eigenvalues --    0.23229   0.24195   0.25357   0.26904   0.27255
 Alpha virt. eigenvalues --    0.29896   0.30545   0.30704   0.31196   0.31308
 Alpha virt. eigenvalues --    0.31525   0.31703   0.33488   0.33698   0.34797
 Alpha virt. eigenvalues --    0.34869   0.35020   0.36726   0.37215   0.38624
 Alpha virt. eigenvalues --    0.38829   0.42100   0.43461   0.44496   0.45469
 Alpha virt. eigenvalues --    0.48971   0.49106   0.50856   0.51625   0.51691
 Alpha virt. eigenvalues --    0.51874   0.52216   0.52651   0.53280   0.53625
 Alpha virt. eigenvalues --    0.53990   0.54536   0.54930   0.54994   0.55883
 Alpha virt. eigenvalues --    0.56318   0.56437   0.56972   0.57304   0.57926
 Alpha virt. eigenvalues --    0.58714   0.59030   0.59559   0.59775   0.60051
 Alpha virt. eigenvalues --    0.60165   0.60300   0.60904   0.60964   0.61076
 Alpha virt. eigenvalues --    0.61211   0.61283   0.61787   0.61886   0.62266
 Alpha virt. eigenvalues --    0.62496   0.63383   0.63642   0.63861   0.64174
 Alpha virt. eigenvalues --    0.65138   0.65287   0.66680   0.67136   0.68244
 Alpha virt. eigenvalues --    0.69091   0.69783   0.70131   0.72101   0.72315
 Alpha virt. eigenvalues --    0.73113   0.74565   0.74646   0.75782   0.76805
 Alpha virt. eigenvalues --    0.77904   0.79276   0.79403   0.80545   0.80720
 Alpha virt. eigenvalues --    0.81061   0.81406   0.82393   0.82514   0.83153
 Alpha virt. eigenvalues --    0.83773   0.84227   0.84238   0.84686   0.84756
 Alpha virt. eigenvalues --    0.85262   0.85681   0.86382   0.87121   0.87596
 Alpha virt. eigenvalues --    0.88154   0.88813   0.89119   0.89871   0.90854
 Alpha virt. eigenvalues --    0.91124   0.91399   0.91889   0.91949   0.92319
 Alpha virt. eigenvalues --    0.92926   0.94270   0.95439   0.95653   0.96251
 Alpha virt. eigenvalues --    0.96524   0.96867   0.98321   0.98549   0.99149
 Alpha virt. eigenvalues --    0.99493   1.00721   1.01285   1.01665   1.03514
 Alpha virt. eigenvalues --    1.03599   1.05682   1.06345   1.07530   1.09007
 Alpha virt. eigenvalues --    1.09041   1.10013   1.11378   1.12401   1.12656
 Alpha virt. eigenvalues --    1.13643   1.13694   1.15201   1.15470   1.16074
 Alpha virt. eigenvalues --    1.17327   1.18002   1.18831   1.18901   1.19906
 Alpha virt. eigenvalues --    1.21137   1.22932   1.24797   1.25133   1.26889
 Alpha virt. eigenvalues --    1.26948   1.28630   1.28998   1.29572   1.30564
 Alpha virt. eigenvalues --    1.32205   1.35836   1.36599   1.37295   1.38782
 Alpha virt. eigenvalues --    1.40783   1.41054   1.41986   1.42869   1.44651
 Alpha virt. eigenvalues --    1.44811   1.45473   1.45702   1.46334   1.46591
 Alpha virt. eigenvalues --    1.47898   1.48060   1.48337   1.49114   1.49322
 Alpha virt. eigenvalues --    1.49810   1.49922   1.50661   1.51077   1.52231
 Alpha virt. eigenvalues --    1.52309   1.53229   1.53626   1.58971   1.59476
 Alpha virt. eigenvalues --    1.60378   1.62971   1.68328   1.70758   1.72930
 Alpha virt. eigenvalues --    1.74750   1.75752   1.77544   1.78982   1.79133
 Alpha virt. eigenvalues --    1.80345   1.81307   1.82042   1.82158   1.82705
 Alpha virt. eigenvalues --    1.83903   1.84199   1.86037   1.86094   1.87070
 Alpha virt. eigenvalues --    1.89029   1.89653   1.90445   1.90656   1.91466
 Alpha virt. eigenvalues --    1.92112   1.92369   1.92802   1.93514   1.94552
 Alpha virt. eigenvalues --    1.96271   1.97195   1.97361   1.98915   1.99246
 Alpha virt. eigenvalues --    2.00391   2.03248   2.03320   2.04652   2.05200
 Alpha virt. eigenvalues --    2.05875   2.06496   2.08132   2.08666   2.09410
 Alpha virt. eigenvalues --    2.10289   2.12785   2.13462   2.14227   2.14719
 Alpha virt. eigenvalues --    2.14888   2.15237   2.15984   2.16127   2.16969
 Alpha virt. eigenvalues --    2.19394   2.20124   2.20845   2.21782   2.22510
 Alpha virt. eigenvalues --    2.23619   2.24044   2.25089   2.28234   2.28342
 Alpha virt. eigenvalues --    2.29176   2.30078   2.30719   2.31489   2.31580
 Alpha virt. eigenvalues --    2.32523   2.32863   2.33168   2.33342   2.35020
 Alpha virt. eigenvalues --    2.36497   2.37373   2.37961   2.39876   2.41581
 Alpha virt. eigenvalues --    2.41933   2.43534   2.46161   2.47918   2.50187
 Alpha virt. eigenvalues --    2.51842   2.54890   2.55254   2.55999   2.58884
 Alpha virt. eigenvalues --    2.59071   2.60727   2.62369   2.63005   2.65152
 Alpha virt. eigenvalues --    2.65567   2.65662   2.66777   2.68231   2.68716
 Alpha virt. eigenvalues --    2.72215   2.72869   2.73388   2.75317   2.75536
 Alpha virt. eigenvalues --    2.75751   2.75904   2.76704   2.77927   2.81178
 Alpha virt. eigenvalues --    2.83518   2.84503   2.85792   2.85900   2.86800
 Alpha virt. eigenvalues --    2.93929   2.96196   2.96905   2.98577   3.09289
 Alpha virt. eigenvalues --    3.09561   3.22249   3.22575   3.41278   3.41296
 Alpha virt. eigenvalues --    3.44403   3.61924   3.91176   4.05896   4.09596
 Alpha virt. eigenvalues --    4.10002   4.10423   4.12536   4.12570   4.13167
 Alpha virt. eigenvalues --    4.13675   4.16880   4.17637   4.20554   4.22885
 Alpha virt. eigenvalues --    4.25575   4.25886   4.31582   4.34016   4.35320
 Alpha virt. eigenvalues --    4.36746   4.37194   4.42624   4.42995   4.46097
 Alpha virt. eigenvalues --    4.48883   4.61549   4.70749   4.71720   4.77550
          Condensed to atoms (all electrons):
 Mulliken charges:
               1
     1  C   -0.529688
     2  C    0.179705
     3  C   -0.185317
     4  C   -0.177696
     5  C    0.085924
     6  C    0.060905
     7  C   -0.175513
     8  C   -0.212126
     9  C    0.113044
    10  C   -0.165311
    11  C   -0.133674
    12  C   -0.127843
    13  C   -0.137470
    14  C   -0.196589
    15  P    0.969093
    16  O   -0.549090
    17  C   -0.067534
    18  C   -0.067531
    19  O   -0.549093
    20  C   -0.212080
    21  C    0.113066
    22  C   -0.165298
    23  C   -0.133678
    24  C   -0.127843
    25  C   -0.137477
    26  C   -0.196611
    27  C   -0.175588
    28  C   -0.177835
    29  C   -0.185483
    30  H    0.154319
    31  H    0.162762
    32  H    0.154298
    33  H    0.117160
    34  H    0.122802
    35  H    0.146760
    36  H    0.133936
    37  H    0.130117
    38  H    0.128027
    39  H    0.127222
    40  H    0.153469
    41  H    0.172738
    42  H    0.164434
    43  H    0.164425
    44  H    0.172740
    45  H    0.133949
    46  H    0.130124
    47  H    0.128028
    48  H    0.127220
    49  H    0.153458
    50  H    0.146707
    51  H    0.122627
    52  H    0.117309
 Sum of Mulliken charges =  -0.00000
 Mulliken charges with hydrogens summed into heavy atoms:
               1
     1  C   -0.058309
     2  C    0.179705
     3  C   -0.068157
     4  C   -0.054894
     5  C    0.085924
     6  C    0.060905
     7  C   -0.028753
     8  C   -0.212126
     9  C    0.113044
    10  C   -0.031375
    11  C   -0.003557
    12  C    0.000184
    13  C   -0.010247
    14  C   -0.043120
    15  P    0.969093
    16  O   -0.549090
    17  C    0.269638
    18  C    0.269634
    19  O   -0.549093
    20  C   -0.212080
    21  C    0.113066
    22  C   -0.031349
    23  C   -0.003554
    24  C    0.000185
    25  C   -0.010257
    26  C   -0.043153
    27  C   -0.028881
    28  C   -0.055208
    29  C   -0.068175
 Electronic spatial extent (au):  <R**2>=          13894.3230
 Charge=              0.0000 electrons
 Dipole moment (field-independent basis, Debye):
    X=              3.0863    Y=              0.0287    Z=             -0.0319  Tot=              3.0866
 Quadrupole moment (field-independent basis, Debye-Ang):
   XX=           -147.7120   YY=           -161.5208   ZZ=           -177.8850
   XY=             -0.1152   XZ=              0.1830   YZ=              5.2195
 Traceless Quadrupole moment (field-independent basis, Debye-Ang):
   XX=             14.6606   YY=              0.8518   ZZ=            -15.5124
   XY=             -0.1152   XZ=              0.1830   YZ=              5.2195
 Octapole moment (field-independent basis, Debye-Ang**2):
  XXX=             70.2969  YYY=             -0.2612  ZZZ=              0.0647  XYY=             33.9374
  XXY=              1.0361  XXZ=             -1.4126  XZZ=             11.1201  YZZ=              0.6311
  YYZ=             -0.3578  XYZ=            -34.2246
 Hexadecapole moment (field-independent basis, Debye-Ang**3):
 XXXX=          -9457.7185 YYYY=          -7390.2329 ZZZZ=           -721.3780 XXXY=             -6.0254
 XXXZ=             10.1073 YYYX=              3.3893 YYYZ=            149.1947 ZZZX=             -0.8111
 ZZZY=             10.0772 XXYY=          -2942.9621 XXZZ=          -1848.6943 YYZZ=          -1444.1249
 XXYZ=            -19.9232 YYXZ=              0.8542 ZZXY=             -4.1347
 N-N= 2.766455229347D+03 E-N=-9.023886466304D+03  KE= 1.483964657056D+03
 No NMR shielding tensors so no spin-rotation constants.
 Leave Link  601 at Mon Jan 19 14:21:40 2026, MaxMem=  8053063680 cpu:               2.9 elap:               0.4
 (Enter /appl/Gaussian16/AVX_revB01/g16/l9999.exe)
 1\1\GINC-CNODE10\FOpt\RB3LYP\6-31G(d)\C26H23O2P1\JUNHKIM\19-Jan-2026\0
 \\#P b3lyp/6-31g* opt SCF=XQC\\Gaussian input prepared by ASE\\0,1\C,-
 6.6947344313,-2.7057491337,0.2453270408\C,-5.3000269775,-2.1292794019,
 0.1724132877\C,-4.2479623633,-2.8446402471,-0.4132176632\C,-2.95614624
 04,-2.3251979127,-0.4600135217\C,-2.6543999375,-1.065748162,0.08636889
 83\C,-1.2762669347,-0.5113043184,0.0400111307\C,-1.0792659824,0.856730
 0453,-0.2069273228\C,0.1412421347,1.5362305355,-0.2961282512\C,0.18309
 5851,3.0073258367,-0.5195680461\C,-0.6499528316,3.8543530565,0.2342732
 502\C,-0.6487187335,5.2329340527,0.0295208539\C,0.19693899,5.802563362
 6,-0.9246351784\C,1.0338614253,4.9769400745,-1.6765885382\C,1.02520567
 27,3.5951463969,-1.4817415293\P,1.5999308542,0.6445187309,-0.055248274
 \O,2.7086887773,0.8420039533,-1.2761601979\C,4.0127878794,1.2040181462
 ,-0.7965245383\C,3.7668307778,1.9252348423,0.5353898505\O,2.6042491699
 ,1.2961651448,1.0961543378\C,1.1794491329,-1.0024677617,0.2474891896\C
 ,2.2393334813,-2.0308757646,0.434069592\C,2.1817631374,-3.2356074161,-
 0.2905055918\C,3.1473822645,-4.2256988169,-0.1181451535\C,4.2048362011
 ,-4.030793094,0.7728271249\C,4.2798863025,-2.8388842706,1.4948023871\C
 ,3.3072625835,-1.851380695,1.3328277438\C,-0.1744967874,-1.3574913627,
 0.2435937388\C,-3.7125805015,-0.351622872,0.674365094\C,-5.0053448895,
 -0.8697870717,0.7092464199\H,-6.8949395419,-3.3789089752,-0.5955136163
 \H,-6.8416870958,-3.2862382714,1.166518895\H,-7.4560597691,-1.91806545
 08,0.2351737712\H,-4.4454869267,-3.8193934692,-0.8550139754\H,-2.17327
 88388,-2.8936328175,-0.9553576201\H,-1.9647811405,1.4632125072,-0.3876
 915385\H,-1.2895939294,3.4218791413,0.9986202286\H,-1.3017639697,5.864
 9179819,0.6260145465\H,0.2014681006,6.8778647875,-1.0813487042\H,1.686
 6474126,5.4070184277,-2.4322454462\H,1.6520241607,2.9587696043,-2.0980
 904029\H,4.6066473049,0.293467144,-0.6598486095\H,4.4896811287,1.84452
 61002,-1.5430205144\H,4.5953844998,1.8092124079,1.2389340469\H,3.55754
 65225,2.9903004964,0.3860945542\H,1.3783748926,-3.3828314574,-1.006949
 0086\H,3.0798026771,-5.1471128043,-0.6909498933\H,4.9604301303,-4.8006
 67688,0.9040665514\H,5.090600446,-2.6810370445,2.2018678292\H,3.354045
 334,-0.9444727336,1.9270448184\H,-0.3828787387,-2.4035850113,0.4602418
 249\H,-3.5161481547,0.6154832502,1.1298971113\H,-5.7988865297,-0.28834
 30022,1.1745990183\\Version=ES64L-G16RevB.01\State=1-A\HF=-1496.429433
 3\RMSD=6.350e-09\RMSF=3.938e-06\Dipole=1.1290028,0.4465971,-0.024703\Q
 uadrupole=9.4430773,2.8498332,-12.2929105,3.3815177,-1.6390426,1.69360
 08\PG=C01 [X(C26H23O2P1)]\\@


 ON A TOMBSTONE, "HERE LIES LESTER MOORE,
 FOUR SLUGS FROM A 44, NO LES, NO MORE".
 Job cpu time:       0 days  2 hours 15 minutes 41.9 seconds.
 Elapsed time:       0 days  0 hours  8 minutes 33.3 seconds.
 File lengths (MBytes):  RWF=    164 Int=      0 D2E=      0 Chk=     20 Scr=      2
 Normal termination of Gaussian 16 at Mon Jan 19 14:21:40 2026.
