
                                 *****************
                                 * O   R   C   A *
                                 *****************

           --- An Ab Initio, DFT and Semiempirical electronic structure package ---

                  #######################################################
                  #                        -***-                        #
                  #          Department of theory and spectroscopy      #
                  #               Directorship: Frank Neese             #
                  #        Max Planck Institute fuer Kohlenforschung    #
                  #                Kaiser Wilhelm Platz 1               #
                  #                 D-45470 Muelheim/Ruhr               #
                  #                      Germany                        #
                  #                                                     #
                  #                  All rights reserved                #
                  #                        -***-                        #
                  #######################################################


                         Program Version 4.2.1 -  RELEASE  -


 With contributions from (in alphabetic order):
   Daniel Aravena         : Magnetic Suceptibility
   Michael Atanasov       : Ab Initio Ligand Field Theory (pilot matlab implementation)
   Alexander A. Auer      : GIAO ZORA, VPT2
   Ute Becker             : Parallelization
   Giovanni Bistoni       : ED, misc. LED, open-shell LED, HFLD
   Martin Brehm           : Molecular dynamics
   Dmytro Bykov           : SCF Hessian
   Vijay G. Chilkuri      : MRCI spin determinant printing, contributions to CSF-ICE
   Dipayan Datta          : RHF DLPNO-CCSD density
   Achintya Kumar Dutta   : EOM-CC, STEOM-CC
   Dmitry Ganyushin       : Spin-Orbit,Spin-Spin,Magnetic field MRCI
   Miquel Garcia          : C-PCM Hessian, Gaussian charge scheme
   Yang Guo               : DLPNO-NEVPT2, CIM, IAO-localization
   Andreas Hansen         : Spin unrestricted coupled pair/coupled cluster methods
   Benjamin Helmich-Paris : CASSCF linear response (MC-RPA)
   Lee Huntington         : MR-EOM, pCC
   Robert Izsak           : Overlap fitted RIJCOSX, COSX-SCS-MP3, EOM
   Christian Kollmar      : KDIIS, OOCD, Brueckner-CCSD(T), CCSD density
   Simone Kossmann        : Meta GGA functionals, TD-DFT gradient, OOMP2, MP2 Hessian
   Martin Krupicka        : AUTO-CI
   Lucas Lang             : DCDCAS
   Dagmar Lenk            : GEPOL surface, SMD
   Dimitrios Liakos       : Extrapolation schemes; Compound Job, initial MDCI parallelization
   Dimitrios Manganas     : Further ROCIS development; embedding schemes
   Dimitrios Pantazis     : SARC Basis sets
   Taras Petrenko         : DFT Hessian,TD-DFT gradient, ASA, ECA, R-Raman, ABS, FL, XAS/XES, NRVS
   Peter Pinski           : DLPNO-MP2, DLPNO-MP2 Gradient
   Christoph Reimann      : Effective Core Potentials
   Marius Retegan         : Local ZFS, SOC
   Christoph Riplinger    : Optimizer, TS searches, QM/MM, DLPNO-CCSD(T), (RO)-DLPNO pert. Triples
   Tobias Risthaus        : Range-separated hybrids, TD-DFT gradient, RPA, STAB
   Michael Roemelt        : Original ROCIS implementation
   Masaaki Saitow         : Open-shell DLPNO-CCSD energy and density
   Barbara Sandhoefer     : DKH picture change effects
   Avijit Sen             : IP-ROCIS
   Kantharuban Sivalingam : CASSCF convergence, NEVPT2, FIC-MRCI
   Bernardo de Souza      : ESD, SOC TD-DFT
   Georgi Stoychev        : AutoAux, RI-MP2 NMR
   Willem Van den Heuvel  : Paramagnetic NMR
   Boris Wezisla          : Elementary symmetry handling
   Frank Wennmohs         : Technical directorship


 We gratefully acknowledge several colleagues who have allowed us to
 interface, adapt or use parts of their codes:
   Stefan Grimme, W. Hujo, H. Kruse,             : VdW corrections, initial TS optimization,
                  C. Bannwarth                     DFT functionals, gCP, sTDA/sTD-DF
   Ed Valeev, F. Pavosevic, A. Kumar             : LibInt (2-el integral package), F12 methods
   Garnet Chan, S. Sharma, J. Yang, R. Olivares  : DMRG
   Ulf Ekstrom                                   : XCFun DFT Library
   Mihaly Kallay                                 : mrcc  (arbitrary order and MRCC methods)
   Andreas Klamt, Michael Diedenhofen            : otool_cosmo (COSMO solvation model)
   Jiri Pittner, Ondrej Demel                    : Mk-CCSD
   Frank Weinhold                                : gennbo (NPA and NBO analysis)
   Christopher J. Cramer and Donald G. Truhlar   : smd solvation model
   Lars Goerigk                                  : TD-DFT with DH, B97 family of functionals
   V. Asgeirsson, H. Jonsson                     : NEB implementation
   FAccTs GmbH                                   : IRC, NEB, NEB-TS, Multilevel, MM, QM/MM, CI optimization
   S Lehtola, MJT Oliveira, MAL Marques          : LibXC Library


 Your calculation uses the libint2 library for the computation of 2-el integrals
 For citations please refer to: http://libint.valeyev.net

 Your ORCA version has been built with support for libXC version: 4.2.3
 For citations please refer to: https://tddft.org/programs/libxc/

 This ORCA versions uses:
   CBLAS   interface :  Fast vector & matrix operations
   LAPACKE interface :  Fast linear algebra routines
   SCALAPACK package :  Parallel linear algebra routines


Your calculation utilizes the semiempirical GFN2-xTB method
Please cite in your paper:
C. Bannwarth, Ehlert S., S. Grimme,  J. Chem. Theory Comput., 15, (2019), 1652.
   

----- Orbital basis set information -----
Your calculation utilizes the basis: def2-SVP
   F. Weigend and R. Ahlrichs, Phys. Chem. Chem. Phys. 7, 3297 (2005).

================================================================================
                                        WARNINGS
                       Please study these warnings very carefully!
================================================================================


WARNING: Geometry Optimization
  ===> : Switching off AutoStart
         For restart on a previous wavefunction, please use MOREAD

WARNING: Found dipole moment calculation with XTB calculation
  ===> : Switching off dipole moment calculation


WARNING: otool_xtb not available.
         Trying xtb instead   ... done.
  ===> : Now using xtb as program name.


INFO   : the flag for use of LIBINT has been found!

================================================================================
                                       INPUT FILE
================================================================================
NAME = pre_opt.inp
|  1> ! XTB2 Opt
|  2> * xyz 0 1
|  3> C     -6.653813   -2.691228    0.249012
|  4> C     -5.277133   -2.102582    0.158755
|  5> C     -4.260483   -2.784356   -0.525442
|  6> C     -2.967722   -2.255244   -0.578691
|  7> C     -2.667617   -1.040166    0.061406
|  8> C     -1.291769   -0.483237    0.006813
|  9> C     -1.122716    0.824552   -0.282645
| 10> C      0.188373    1.503094   -0.376757
| 11> C      0.234702    2.971251   -0.559245
| 12> C     -0.547785    3.803492    0.260668
| 13> C     -0.508268    5.191976    0.101775
| 14> C      0.307132    5.761861   -0.878818
| 15> C      1.081298    4.943836   -1.705112
| 16> C      1.044785    3.554776   -1.550417
| 17> P      1.558482    0.668752   -0.098523
| 18> O      2.615410    0.744216   -1.402950
| 19> C      3.820265    1.121943   -0.797150
| 20> C      3.548546    1.890985    0.507962
| 21> O      2.424240    1.369196    1.160828
| 22> C      1.135124   -1.034636    0.253592
| 23> C      2.209415   -2.034695    0.456756
| 24> C      2.199527   -3.242610   -0.265309
| 25> C      3.220337   -4.181252   -0.087648
| 26> C      4.258204   -3.925481    0.811411
| 27> C      4.275428   -2.731703    1.536408
| 28> C      3.256557   -1.790160    1.362557
| 29> C     -0.152343   -1.406279    0.266385
| 30> C     -3.686081   -0.369603    0.762837
| 31> C     -4.978137   -0.900322    0.815718
| 32> H     -6.885387   -3.287370   -0.659314
| 33> H     -6.715753   -3.350032    1.140180
| 34> H     -7.417766   -1.889543    0.337049
| 35> H     -4.468972   -3.724571   -1.021041
| 36> H     -2.204381   -2.789875   -1.130428
| 37> H     -1.998615    1.430269   -0.485969
| 38> H     -1.177795    3.378807    1.032684
| 39> H     -1.108735    5.826438    0.740807
| 40> H      0.336523    6.836910   -1.000606
| 41> H      1.706786    5.386015   -2.469781
| 42> H      1.635257    2.940341   -2.215687
| 43> H      4.419157    0.210166   -0.579959
| 44> H      4.400868    1.759934   -1.496293
| 45> H      4.431003    1.819154    1.178076
| 46> H      3.370478    2.965281    0.281868
| 47> H      1.410033   -3.451661   -0.976788
| 48> H      3.208253   -5.105980   -0.649974
| 49> H      5.047899   -4.652970    0.947695
| 50> H      5.076942   -2.537101    2.237261
| 51> H      3.279898   -0.883363    1.950114
| 52> H     -0.387827   -2.439127    0.496252
| 53> H     -3.477075    0.556179    1.284697
| 54> H     -5.744753   -0.374278    1.371301
| 55> *
| 56> 
| 57>                          ****END OF INPUT****
================================================================================

                       *****************************
                       * Geometry Optimization Run *
                       *****************************

Geometry optimization settings:
Update method            Update   .... BFGS
Choice of coordinates    CoordSys .... Z-matrix Internals
Initial Hessian          InHess   .... Almoef's Model

Convergence Tolerances:
Energy Change            TolE     ....  5.0000e-06 Eh
Max. Gradient            TolMAXG  ....  3.0000e-04 Eh/bohr
RMS Gradient             TolRMSG  ....  1.0000e-04 Eh/bohr
Max. Displacement        TolMAXD  ....  4.0000e-03 bohr
RMS Displacement         TolRMSD  ....  2.0000e-03 bohr
Strict Convergence                ....  False
------------------------------------------------------------------------------
                        ORCA OPTIMIZATION COORDINATE SETUP
------------------------------------------------------------------------------

The optimization will be done in new redundant internal coordinates
Making redundant internal coordinates   ...  (new redundants) done
Evaluating the initial hessian          ...  (Almloef) done
Evaluating the coordinates              ...  done
Calculating the B-matrix                .... done
Calculating the G-matrix                .... done
Diagonalizing the G-matrix              .... done
Small eigenvalue found = 2.301e-03
Small eigenvalue found = 3.799e-03
Small eigenvalue found = 9.168e-03
Small eigenvalue found = 1.009e-02
Small eigenvalue found = 1.452e-02
Small eigenvalue found = 2.117e-02
Small eigenvalue found = 2.976e-02
The first mode is                       ....  211
The number of degrees of freedom        ....  150

    -----------------------------------------------------------------
                    Redundant Internal Coordinates


    -----------------------------------------------------------------
         Definition                    Initial Value    Approx d2E/dq
    -----------------------------------------------------------------
      1. B(C   1,C   0)                  1.5000         0.417152   
      2. B(C   2,C   1)                  1.4023         0.597136   
      3. B(C   3,C   2)                  1.3979         0.607003   
      4. B(C   4,C   3)                  1.4058         0.589619   
      5. B(C   5,C   4)                  1.4853         0.440248   
      6. B(C   6,C   5)                  1.3501         0.723522   
      7. B(C   7,C   6)                  1.4793         0.450110   
      8. B(C   8,C   7)                  1.4802         0.448603   
      9. B(C   9,C   8)                  1.4061         0.588875   
     10. B(C  10,C   9)                  1.3981         0.606468   
     11. B(C  11,C  10)                  1.3969         0.609255   
     12. B(C  12,C  11)                  1.3969         0.609214   
     13. B(C  13,C  12)                  1.3981         0.606425   
     14. B(C  13,C   8)                  1.4068         0.587347   
     15. B(P  14,C   7)                  1.6281         0.875678   
     16. B(O  15,P  14)                  1.6806         0.646816   
     17. B(C  16,O  15)                  1.4005         0.538460   
     18. B(C  16,P  14)                  2.4102         0.049494   
     19. B(C  17,C  16)                  1.5390         0.361402   
     20. B(C  17,P  14)                  2.4129         0.049009   
     21. B(O  18,C  17)                  1.4009         0.537603   
     22. B(O  18,P  14)                  1.6811         0.645543   
     23. B(C  19,P  14)                  1.7902         0.482802   
     24. B(C  20,C  19)                  1.4817         0.446072   
     25. B(C  21,C  20)                  1.4073         0.586292   
     26. B(C  22,C  21)                  1.3981         0.606493   
     27. B(C  23,C  22)                  1.3967         0.609507   
     28. B(C  24,C  23)                  1.3968         0.609404   
     29. B(C  25,C  24)                  1.3982         0.606366   
     30. B(C  25,C  20)                  1.4060         0.589174   
     31. B(C  26,C   5)                  1.4892         0.434003   
     32. B(C  26,C  19)                  1.3401         0.750515   
     33. B(C  27,C   4)                  1.4067         0.587522   
     34. B(C  28,C  27)                  1.3978         0.607129   
     35. B(C  28,C   1)                  1.4023         0.597206   
     36. B(H  29,C   0)                  1.1109         0.333504   
     37. B(H  30,C   0)                  1.1100         0.334625   
     38. B(H  31,C   0)                  1.1109         0.333501   
     39. B(H  32,C   2)                  1.0831         0.369354   
     40. B(H  33,C   3)                  1.0830         0.369452   
     41. B(H  34,C   6)                  1.0842         0.367890   
     42. B(H  35,C   9)                  1.0832         0.369236   
     43. B(H  36,C  10)                  1.0823         0.370374   
     44. B(H  37,C  11)                  1.0823         0.370398   
     45. B(H  38,C  12)                  1.0823         0.370367   
     46. B(H  39,C  13)                  1.0811         0.372072   
     47. B(H  40,C  16)                  1.1123         0.331793   
     48. B(H  41,C  16)                  1.1104         0.334130   
     49. B(H  42,C  17)                  1.1104         0.334125   
     50. B(H  43,C  17)                  1.1122         0.331925   
     51. B(H  44,C  21)                  1.0831         0.369282   
     52. B(H  45,C  22)                  1.0823         0.370365   
     53. B(H  46,C  23)                  1.0823         0.370395   
     54. B(H  47,C  24)                  1.0824         0.370358   
     55. B(H  48,C  25)                  1.0808         0.372529   
     56. B(H  49,C  26)                  1.0840         0.368119   
     57. B(H  50,C  27)                  1.0831         0.369352   
     58. B(H  51,C  28)                  1.0831         0.369351   
     59. A(H  30,C   0,H  31)          109.0459         0.284097   
     60. A(C   1,C   0,H  31)          110.6545         0.326115   
     61. A(H  29,C   0,H  30)          109.0464         0.284097   
     62. A(C   1,C   0,H  30)          109.4177         0.326296   
     63. A(C   1,C   0,H  29)          110.6539         0.326116   
     64. A(H  29,C   0,H  31)          107.9816         0.283949   
     65. A(C   2,C   1,C  28)          119.3946         0.428255   
     66. A(C   0,C   1,C  28)          120.2625         0.401801   
     67. A(C   0,C   1,C   2)          120.2617         0.401793   
     68. A(C   1,C   2,H  32)          120.3804         0.352181   
     69. A(C   1,C   2,C   3)          120.3331         0.429507   
     70. A(C   3,C   2,H  32)          119.2862         0.353159   
     71. A(C   4,C   3,H  33)          120.5429         0.351443   
     72. A(C   2,C   3,H  33)          118.9721         0.353175   
     73. A(C   2,C   3,C   4)          120.4810         0.428532   
     74. A(C   3,C   4,C  27)          118.9795         0.426035   
     75. A(C   5,C   4,C  27)          120.6791         0.404470   
     76. A(C   3,C   4,C   5)          120.3387         0.404725   
     77. A(C   6,C   5,C  26)          122.8187         0.418626   
     78. A(C   4,C   5,C  26)          118.0299         0.383570   
     79. A(C   4,C   5,C   6)          119.1496         0.419693   
     80. A(C   7,C   6,H  34)          116.6053         0.335650   
     81. A(C   5,C   6,C   7)          124.6778         0.421356   
     82. A(C   5,C   6,H  34)          118.7011         0.363622   
     83. A(C   6,C   7,C   8)          119.3774         0.387276   
     84. A(C   8,C   7,P  14)          120.2005         0.465227   
     85. A(C   6,C   7,P  14)          119.9948         0.465513   
     86. A(C   9,C   8,C  13)          119.0626         0.425916   
     87. A(C   7,C   8,C  13)          121.0842         0.405794   
     88. A(C   7,C   8,C   9)          119.8517         0.405980   
     89. A(C  10,C   9,H  35)          119.1315         0.353087   
     90. A(C   8,C   9,H  35)          120.4781         0.351334   
     91. A(C   8,C   9,C  10)          120.3845         0.428367   
     92. A(C   9,C  10,C  11)          120.0960         0.430991   
     93. A(C   9,C  10,H  36)          119.9589         0.353271   
     94. A(C  11,C  10,H  36)          119.9450         0.353546   
     95. A(C  12,C  11,H  37)          120.0041         0.353546   
     96. A(C  10,C  11,H  37)          120.0052         0.353550   
     97. A(C  10,C  11,C  12)          119.9904         0.431341   
     98. A(C  11,C  12,C  13)          120.1252         0.430980   
     99. A(C  13,C  12,H  38)          119.9438         0.353266   
    100. A(C  11,C  12,H  38)          119.9303         0.353541   
    101. A(C   8,C  13,C  12)          120.3370         0.428162   
    102. A(C   8,C  13,H  39)          120.8183         0.351634   
    103. A(C  12,C  13,H  39)          118.8363         0.353541   
    104. A(C  16,P  14,O  18)           69.8499         0.318756   
    105. A(O  15,P  14,O  18)          103.8192         0.497284   
    106. A(C   7,P  14,O  18)          110.3579         0.529241   
    107. A(C  16,P  14,C  17)           37.2161         0.218062   
    108. A(O  15,P  14,C  17)           69.7356         0.318348   
    109. A(C   7,P  14,C  17)          118.5182         0.336299   
    110. A(O  15,P  14,C  16)           34.5525         0.318859   
    111. A(O  18,P  14,C  19)          111.7711         0.473738   
    112. A(C  17,P  14,C  19)          128.8728         0.305121   
    113. A(C  16,P  14,C  19)          117.2486         0.305602   
    114. A(C   7,P  14,C  16)          130.0770         0.336850   
    115. A(O  15,P  14,C  19)          110.1284         0.473909   
    116. A(C   7,P  14,C  19)          108.7969         0.504037   
    117. A(C   7,P  14,O  15)          111.9374         0.529437   
    118. A(C  17,P  14,O  18)           34.5032         0.318246   
    119. A(P  14,O  15,C  16)          102.5577         0.449645   
    120. A(O  15,C  16,C  17)          110.4693         0.382359   
    121. A(P  14,C  16,O  15)           42.8898         0.291948   
    122. A(C  17,C  16,H  40)          109.8215         0.318273   
    123. A(H  40,C  16,H  41)          108.2041         0.283805   
    124. A(C  17,C  16,H  41)          109.8255         0.318637   
    125. A(P  14,C  16,H  41)          141.3737         0.247865   
    126. A(O  15,C  16,H  40)          109.0623         0.337861   
    127. A(P  14,C  16,C  17)           71.4864         0.275974   
    128. A(P  14,C  16,H  40)          107.1300         0.247613   
    129. A(O  15,C  16,H  41)          109.4179         0.338257   
    130. A(P  14,C  17,C  16)           71.2975         0.275558   
    131. A(H  42,C  17,H  43)          108.2048         0.283822   
    132. A(P  14,C  17,H  43)          107.8269         0.247275   
    133. A(C  16,C  17,H  43)          109.7887         0.318294   
    134. A(O  18,C  17,H  42)          109.4189         0.338166   
    135. A(C  16,C  17,H  42)          109.8244         0.318637   
    136. A(P  14,C  17,H  42)          140.7499         0.247511   
    137. A(O  18,C  17,H  43)          109.0274         0.337794   
    138. A(C  16,C  17,O  18)          110.5347         0.382253   
    139. A(P  14,C  17,O  18)           42.8238         0.291424   
    140. A(P  14,O  18,C  17)          102.6730         0.449355   
    141. A(C  20,C  19,C  26)          120.5355         0.423440   
    142. A(P  14,C  19,C  26)          119.5353         0.458411   
    143. A(P  14,C  19,C  20)          119.8490         0.417374   
    144. A(C  21,C  20,C  25)          119.0168         0.425817   
    145. A(C  19,C  20,C  25)          120.7260         0.405611   
    146. A(C  19,C  20,C  21)          120.2555         0.405260   
    147. A(C  22,C  21,H  44)          119.0837         0.353097   
    148. A(C  20,C  21,H  44)          120.5175         0.351080   
    149. A(C  20,C  21,C  22)          120.3923         0.428033   
    150. A(C  23,C  22,H  45)          119.9450         0.353569   
    151. A(C  21,C  22,H  45)          119.9623         0.353273   
    152. A(C  21,C  22,C  23)          120.0924         0.431026   
    153. A(C  24,C  23,H  46)          120.0071         0.353564   
    154. A(C  22,C  23,H  46)          120.0082         0.353574   
    155. A(C  22,C  23,C  24)          119.9846         0.431397   
    156. A(C  25,C  24,H  47)          119.9393         0.353259   
    157. A(C  23,C  24,H  47)          119.9266         0.353558   
    158. A(C  23,C  24,C  25)          120.1336         0.430997   
    159. A(C  24,C  25,H  48)          118.7955         0.353609   
    160. A(C  20,C  25,H  48)          120.8145         0.351892   
    161. A(C  20,C  25,C  24)          120.3794         0.428394   
    162. A(C   5,C  26,C  19)          124.1614         0.421370   
    163. A(C  19,C  26,H  49)          118.3572         0.365948   
    164. A(C   5,C  26,H  49)          117.4727         0.333658   
    165. A(C   4,C  27,C  28)          120.4703         0.428274   
    166. A(C  28,C  27,H  50)          118.9913         0.353171   
    167. A(C   4,C  27,H  50)          120.5295         0.351216   
    168. A(C   1,C  28,C  27)          120.3236         0.429532   
    169. A(C  27,C  28,H  51)          119.2915         0.353171   
    170. A(C   1,C  28,H  51)          120.3847         0.352188   
    171. D(C   2,C   1,C   0,H  31)   -151.5069         0.012873   
    172. D(C  28,C   1,C   0,H  31)     31.7881         0.012873   
    173. D(C   2,C   1,C   0,H  30)     88.3173         0.012873   
    174. D(C  28,C   1,C   0,H  30)    -88.3877         0.012873   
    175. D(C   2,C   1,C   0,H  29)    -31.8586         0.012873   
    176. D(C  28,C   1,C   0,H  29)    151.4363         0.012873   
    177. D(H  32,C   2,C   1,C  28)    178.7326         0.024569   
    178. D(H  32,C   2,C   1,C   0)      1.9990         0.024569   
    179. D(C   3,C   2,C   1,C  28)     -1.4748         0.024569   
    180. D(C   3,C   2,C   1,C   0)   -178.2083         0.024569   
    181. D(C   4,C   3,C   2,H  32)   -179.6723         0.025433   
    182. D(H  33,C   3,C   2,H  32)      1.0489         0.025433   
    183. D(C   4,C   3,C   2,C   1)      0.5328         0.025433   
    184. D(H  33,C   3,C   2,C   1)   -178.7460         0.025433   
    185. D(C   5,C   4,C   3,C   2)    179.7848         0.023923   
    186. D(C  27,C   4,C   3,C   2)      0.3848         0.023923   
    187. D(C   5,C   4,C   3,H  33)     -0.9478         0.023923   
    188. D(C  27,C   4,C   3,H  33)    179.6523         0.023923   
    189. D(C  26,C   5,C   4,C   3)    -45.8740         0.013225   
    190. D(C  26,C   5,C   4,C  27)    133.5156         0.013225   
    191. D(C   6,C   5,C   4,C  27)    -46.9524         0.013225   
    192. D(C   6,C   5,C   4,C   3)    133.6580         0.013225   
    193. D(H  34,C   6,C   5,C   4)     -1.1147         0.037082   
    194. D(H  34,C   6,C   5,C  26)    178.3938         0.037082   
    195. D(C   7,C   6,C   5,C  26)     -0.1080         0.037082   
    196. D(C   7,C   6,C   5,C   4)   -179.6165         0.037082   
    197. D(C   8,C   7,C   6,C   5)   -173.5369         0.013810   
    198. D(P  14,C   7,C   6,C   5)     -1.0223         0.013810   
    199. D(P  14,C   7,C   6,H  34)   -179.5525         0.013810   
    200. D(C   8,C   7,C   6,H  34)      7.9329         0.013810   
    201. D(C   9,C   8,C   7,C   6)     48.2763         0.013720   
    202. D(C   9,C   8,C   7,P  14)   -124.2226         0.013720   
    203. D(C  13,C   8,C   7,P  14)     56.2399         0.013720   
    204. D(C  13,C   8,C   7,C   6)   -131.2612         0.013720   
    205. D(H  35,C   9,C   8,C  13)   -179.8378         0.023859   
    206. D(H  35,C   9,C   8,C   7)      0.6153         0.023859   
    207. D(C  10,C   9,C   8,C  13)     -0.7276         0.023859   
    208. D(C  10,C   9,C   8,C   7)    179.7255         0.023859   
    209. D(C  11,C  10,C   9,C   8)      0.2554         0.025385   
    210. D(H  36,C  10,C   9,H  35)     -0.4947         0.025385   
    211. D(H  36,C  10,C   9,C   8)   -179.6168         0.025385   
    212. D(C  11,C  10,C   9,H  35)    179.3776         0.025385   
    213. D(C  12,C  11,C  10,H  36)   -179.9251         0.025633   
    214. D(C  12,C  11,C  10,C   9)      0.2026         0.025633   
    215. D(H  37,C  11,C  10,H  36)     -0.1335         0.025633   
    216. D(H  37,C  11,C  10,C   9)    179.9942         0.025633   
    217. D(H  38,C  12,C  11,H  37)     -0.2753         0.025629   
    218. D(H  38,C  12,C  11,C  10)    179.5163         0.025629   
    219. D(C  13,C  12,C  11,H  37)   -179.9697         0.025629   
    220. D(C  13,C  12,C  11,C  10)     -0.1780         0.025629   
    221. D(C   8,C  13,C  12,H  38)   -179.9987         0.025382   
    222. D(C   8,C  13,C  12,C  11)     -0.3044         0.025382   
    223. D(H  39,C  13,C   8,C   9)   -178.1748         0.023730   
    224. D(H  39,C  13,C  12,C  11)    178.6433         0.025382   
    225. D(H  39,C  13,C   8,C   7)      1.3664         0.023730   
    226. D(H  39,C  13,C  12,H  38)     -1.0510         0.025382   
    227. D(C  12,C  13,C   8,C   9)      0.7518         0.023730   
    228. D(C  12,C  13,C   8,C   7)   -179.7070         0.023730   
    229. D(O  15,P  14,C   7,C   8)    -64.2854         0.014398   
    230. D(C  16,P  14,C   7,C   6)    158.0268         0.014398   
    231. D(C  16,P  14,C   7,C   8)    -29.5208         0.014398   
    232. D(O  15,P  14,C   7,C   6)    123.2622         0.014398   
    233. D(C  17,P  14,C   7,C   6)   -158.6321         0.014398   
    234. D(C  19,P  14,C   7,C   8)    173.7785         0.014398   
    235. D(C  19,P  14,C   7,C   6)      1.3261         0.014398   
    236. D(O  18,P  14,C   7,C   8)     50.8087         0.014398   
    237. D(O  18,P  14,C   7,C   6)   -121.6437         0.014398   
    238. D(C  17,P  14,C   7,C   8)     13.8203         0.014398   
    239. D(C  16,O  15,P  14,C  19)   -109.1202         0.008769   
    240. D(C  16,O  15,P  14,C  17)     16.1338         0.008769   
    241. D(C  16,O  15,P  14,C   7)    129.7099         0.008769   
    242. D(C  16,O  15,P  14,O  18)     10.6786         0.008769   
    243. D(H  41,C  16,O  15,P  14)   -146.8906         0.025039   
    244. D(H  40,C  16,O  15,P  14)     94.9277         0.025039   
    245. D(H  41,C  16,P  14,C  19)    141.8679         0.001545   
    246. D(H  41,C  16,P  14,O  18)   -113.3335         0.001545   
    247. D(H  41,C  16,P  14,C  17)    -98.8522         0.001545   
    248. D(H  41,C  16,P  14,C   7)    -13.2232         0.001545   
    249. D(H  40,C  16,P  14,C  19)    -13.5567         0.001545   
    250. D(H  40,C  16,P  14,O  18)     91.2419         0.001545   
    251. D(H  40,C  16,P  14,C  17)    105.7232         0.001545   
    252. D(H  40,C  16,P  14,O  15)    -99.8082         0.001545   
    253. D(H  40,C  16,P  14,C   7)   -168.6478         0.001545   
    254. D(C  17,C  16,P  14,C  19)   -119.2799         0.001545   
    255. D(C  17,C  16,P  14,O  18)    -14.4813         0.001545   
    256. D(H  41,C  16,P  14,O  15)     55.6164         0.001545   
    257. D(C  17,C  16,P  14,O  15)    154.4686         0.001545   
    258. D(C  17,C  16,P  14,C   7)     85.6291         0.001545   
    259. D(O  15,C  16,P  14,C  19)     86.2515         0.001545   
    260. D(C  17,C  16,O  15,P  14)    -25.8645         0.025039   
    261. D(O  15,C  16,P  14,O  18)   -168.9499         0.001545   
    262. D(O  15,C  16,P  14,C  17)   -154.4686         0.001545   
    263. D(O  15,C  16,P  14,C   7)    -68.8396         0.001545   
    264. D(H  43,C  17,C  16,H  41)     36.2217         0.011690   
    265. D(H  43,C  17,C  16,H  40)    155.0999         0.011690   
    266. D(H  43,C  17,C  16,O  15)    -84.5617         0.011690   
    267. D(H  42,C  17,C  16,H  41)    -82.6368         0.011690   
    268. D(H  42,C  17,C  16,H  40)     36.2414         0.011690   
    269. D(H  42,C  17,C  16,O  15)    156.5799         0.011690   
    270. D(O  18,C  17,C  16,H  41)    156.5372         0.011690   
    271. D(O  18,C  17,C  16,H  40)    -84.5846         0.011690   
    272. D(O  18,C  17,C  16,O  15)     35.7539         0.011690   
    273. D(O  18,C  17,C  16,P  14)     17.5072         0.011690   
    274. D(P  14,C  17,C  16,H  41)    139.0300         0.011690   
    275. D(P  14,C  17,C  16,H  40)   -102.0918         0.011690   
    276. D(P  14,C  17,C  16,O  15)     18.2466         0.011690   
    277. D(H  43,C  17,P  14,C  19)   -169.6485         0.001544   
    278. D(H  43,C  17,P  14,O  18)    -99.0226         0.001544   
    279. D(H  43,C  17,P  14,C  16)    105.4613         0.001544   
    280. D(H  43,C  17,P  14,O  15)     90.3569         0.001544   
    281. D(H  43,C  17,P  14,C   7)    -14.2758         0.001544   
    282. D(H  42,C  17,P  14,C  19)    -13.8269         0.001544   
    283. D(H  42,C  17,P  14,O  18)     56.7990         0.001544   
    284. D(H  42,C  17,P  14,C  16)    -98.7171         0.001544   
    285. D(H  42,C  17,P  14,O  15)   -113.8215         0.001544   
    286. D(H  42,C  17,P  14,C   7)    141.5458         0.001544   
    287. D(O  18,C  17,P  14,C  19)    -70.6259         0.001544   
    288. D(H  42,C  17,C  16,P  14)    138.3332         0.011690   
    289. D(O  18,C  17,P  14,C  16)   -155.5162         0.001544   
    290. D(O  18,C  17,P  14,O  15)   -170.6205         0.001544   
    291. D(O  18,C  17,P  14,C   7)     84.7468         0.001544   
    292. D(H  43,C  17,C  16,P  14)   -102.8083         0.011690   
    293. D(C  16,C  17,P  14,C  19)     84.8902         0.001544   
    294. D(C  16,C  17,P  14,O  18)    155.5162         0.001544   
    295. D(C  16,C  17,P  14,O  15)    -15.1044         0.001544   
    296. D(C  16,C  17,P  14,C   7)   -119.7371         0.001544   
    297. D(C  17,O  18,P  14,C   7)   -111.0497         0.008739   
    298. D(P  14,O  18,C  17,H  43)     95.9868         0.024955   
    299. D(P  14,O  18,C  17,H  42)   -145.8505         0.024955   
    300. D(P  14,O  18,C  17,C  16)    -24.7833         0.024955   
    301. D(C  17,O  18,P  14,C  19)    127.7336         0.008739   
    302. D(C  17,O  18,P  14,C  16)     15.4860         0.008739   
    303. D(C  17,O  18,P  14,O  15)      9.0585         0.008739   
    304. D(C  26,C  19,P  14,C  17)    156.4754         0.005186   
    305. D(C  26,C  19,P  14,C  16)   -160.8671         0.005186   
    306. D(C  26,C  19,P  14,O  15)   -123.7991         0.005186   
    307. D(C  26,C  19,P  14,C   7)     -0.7703         0.005186   
    308. D(C  20,C  19,P  14,O  18)    -61.8920         0.005186   
    309. D(C  20,C  19,P  14,C  17)    -26.7631         0.005186   
    310. D(C  20,C  19,P  14,C  16)     15.8945         0.005186   
    311. D(C  20,C  19,P  14,O  15)     52.9625         0.005186   
    312. D(C  26,C  19,P  14,O  18)    121.3464         0.005186   
    313. D(C  20,C  19,P  14,C   7)    175.9913         0.005186   
    314. D(C  25,C  20,C  19,C  26)   -132.2708         0.013568   
    315. D(C  25,C  20,C  19,P  14)     51.0005         0.013568   
    316. D(C  21,C  20,C  19,C  26)     48.2016         0.013568   
    317. D(C  21,C  20,C  19,P  14)   -128.5271         0.013568   
    318. D(H  44,C  21,C  20,C  25)   -179.3754         0.023640   
    319. D(H  44,C  21,C  20,C  19)      0.1602         0.023640   
    320. D(C  22,C  21,C  20,C  25)     -0.3038         0.023640   
    321. D(C  22,C  21,C  20,C  19)    179.2319         0.023640   
    322. D(H  45,C  22,C  21,H  44)     -0.6333         0.025388   
    323. D(H  45,C  22,C  21,C  20)   -179.7182         0.025388   
    324. D(C  23,C  22,C  21,H  44)    179.1603         0.025388   
    325. D(C  23,C  22,C  21,C  20)      0.0755         0.025388   
    326. D(H  46,C  23,C  22,H  45)     -0.1908         0.025655   
    327. D(H  46,C  23,C  22,C  21)   -179.9845         0.025655   
    328. D(C  24,C  23,C  22,H  45)    179.9272         0.025655   
    329. D(C  24,C  23,C  22,C  21)      0.1335         0.025655   
    330. D(H  47,C  24,C  23,H  46)     -0.2515         0.025646   
    331. D(H  47,C  24,C  23,C  22)    179.6305         0.025646   
    332. D(C  25,C  24,C  23,H  46)   -179.9919         0.025646   
    333. D(C  25,C  24,C  23,C  22)     -0.1099         0.025646   
    334. D(H  48,C  25,C  24,C  23)    178.7003         0.025376   
    335. D(C  20,C  25,C  24,H  47)   -179.8634         0.025376   
    336. D(C  20,C  25,C  24,C  23)     -0.1231         0.025376   
    337. D(H  48,C  25,C  20,C  21)   -178.4719         0.023885   
    338. D(H  48,C  25,C  20,C  19)      1.9947         0.023885   
    339. D(C  24,C  25,C  20,C  21)      0.3274         0.023885   
    340. D(H  48,C  25,C  24,H  47)     -1.0400         0.025376   
    341. D(C  24,C  25,C  20,C  19)   -179.2060         0.023885   
    342. D(H  49,C  26,C  19,C  20)      4.1530         0.040175   
    343. D(H  49,C  26,C  19,P  14)   -179.1081         0.040175   
    344. D(C   5,C  26,C  19,C  20)   -176.9463         0.040175   
    345. D(C   5,C  26,C  19,P  14)     -0.2074         0.040175   
    346. D(H  49,C  26,C   5,C   6)    179.6668         0.012862   
    347. D(H  49,C  26,C   5,C   4)     -0.8195         0.012862   
    348. D(C  19,C  26,C   5,C   6)      0.7572         0.012862   
    349. D(C  19,C  26,C   5,C   4)   -179.7291         0.012862   
    350. D(H  50,C  27,C   4,C   5)     -0.8478         0.023745   
    351. D(H  50,C  27,C   4,C   3)    178.5500         0.023745   
    352. D(C  28,C  27,C   4,C   5)   -179.7509         0.023745   
    353. D(C  28,C  27,C   4,C   3)     -0.3531         0.023745   
    354. D(H  51,C  28,C  27,C   4)    179.2599         0.025444   
    355. D(C   1,C  28,C  27,H  50)   -179.5164         0.025444   
    356. D(C   1,C  28,C  27,C   4)     -0.5966         0.025444   
    357. D(H  51,C  28,C   1,C   2)   -178.3485         0.024575   
    358. D(H  51,C  28,C   1,C   0)     -1.6150         0.024575   
    359. D(C  27,C  28,C   1,C   2)      1.5063         0.024575   
    360. D(H  51,C  28,C  27,H  50)      0.3401         0.025444   
    361. D(C  27,C  28,C   1,C   0)    178.2399         0.024575   
    -----------------------------------------------------------------

Number of atoms                         .... 52
Number of degrees of freedom            .... 361

         *************************************************************
         *                GEOMETRY OPTIMIZATION CYCLE   1            *
         *************************************************************
      -----------------------------------------------------------      
     |                   =====================                   |     
     |                           x T B                           |     
     |                   =====================                   |     
     |                         S. Grimme                         |     
     |          Mulliken Center for Theoretical Chemistry        |     
     |                    University of Bonn                     |     
      -----------------------------------------------------------      

   * xtb version 6.2.3 (830e466) compiled by 'ehlert@majestix' on 2020-03-16

   xtb is free software: you can redistribute it and/or modify it under
   the terms of the GNU Lesser General Public License as published by
   the Free Software Foundation, either version 3 of the License, or
   (at your option) any later version.
   
   xtb is distributed in the hope that it will be useful,
   but WITHOUT ANY WARRANTY; without even the implied warranty of
   MERCHANTABILITY or FITNESS FOR A PARTICULAR PURPOSE.  See the
   GNU Lesser General Public License for more details.
   
   Cite this work as:
   * S. Grimme, C. Bannwarth, P. Shushkov, J. Chem. Theory Comput., 2017,
     13, 1989-2009. DOI: 10.1021/acs.jctc.7b00118
   * C. Bannwarth, S. Ehlert and S. Grimme., J. Chem. Theory Comput., 2019,
     15, 1652-1671. DOI: 10.1021/acs.jctc.8b01176
   * P. Pracht, E. Caldeweyher, S. Ehlert, S. Grimme, ChemRxiv, 2019, preprint.
     DOI: 10.26434/chemrxiv.8326202.v1
   
   for DFT-D4:
   * E. Caldeweyher, C. Bannwarth and S. Grimme, J. Chem. Phys., 2017,
     147, 034112. DOI: 10.1063/1.4993215
   * E. Caldeweyher, S. Ehlert, A. Hansen, H. Neugebauer, S. Spicher,
     C. Bannwarth and S. Grimme, J. Chem. Phys., 2019, 150, 154122.
     DOI: 10.1063/1.5090222
   
   for sTDA-xTB:
   * S. Grimme and C. Bannwarth, J. Chem. Phys., 2016, 145, 054103.
     DOI: 10.1063/1.4959605
   
   in the mass-spec context:
   * V. Asgeirsson, C. Bauer and S. Grimme, Chem. Sci., 2017, 8, 4879.
     DOI: 10.1039/c7sc00601b
   
   for metadynamics refer to:
   * S. Grimme, J. Chem. Theory Comput., 2019, 155, 2847-2862
     DOI: 10.1021/acs.jctc.9b00143
   
   with help from (in alphabetical order)
   C. Bannwarth, F. Bohle, G. Brandenburg, E. Caldeweyher, M. Checinski,
   S. Dohm, S. Ehlert, S. Ehrlich, F. März, H. Neugebauer, J. Pisarek,
   P. Pracht, P. Shushkov, and S. Spicher.
   
 * started run on 2026/01/19 at 14:12:18.338     

           -------------------------------------------------
          |                Calculation Setup                |
           -------------------------------------------------

          program call               : /appl/orca_4.2.1/orca_4_2_1_linux_x86-64_openmpi314/xtb pre_opt_XTB.xyz --grad -c 0 -u 0 -P 1 --namespace pre_opt
          hostname                   : cnode10
          calculation namespace      : pre_opt
          coordinate file            : pre_opt_XTB.xyz
          omp threads                :                     1
          number of atoms            :                    52
          number of electrons        :                   144
          charge                     :                     0
          spin                       :                   0.0
          first test random number   :      0.01999514396283

########################################################################
[WARNING] Please study the warnings concerning your input carefully
-2- prog_main: XTBPATH is not set, using XTBHOME instead
-1- prog_main: XTBHOME is not set, using HOME instead
########################################################################
           ------------------------------------------------- 
          |                 G F N 2 - x T B                 |
          | Geometry, Frequencies, Noncovalent interactions |
          |            JCTC 2019 parametrisation            |
           ------------------------------------------------- 
             k(s)              :                1.8500
             k(p)              :                2.2300
             k(d)              :                2.2300
             k(f)              :                2.0000
             kEN (H0ij)        :               -2.0000
             D4 a1             :                0.5200
             D4 a2             :                5.0000
             D4 s6             :                1.0000
             D4 s8             :                2.7000
             D4 s9             :                5.0000
             alphaj            :                2.0000

  Z AO/shell   Hii/eV     exponent
  1     Wed Apr 25 08:07:45 CEST 2018   EN: 2.200 GM2: 0.406  GM3: 0.0800  RAES: 1.40
     1s    -10.707211    1.230000
  6     Wed Apr 25 08:07:45 CEST 2018   EN: 2.550 GM2: 0.538  GM3: 0.1500  RAES: 3.00
     2s    -13.970922    2.096432
     2p    -10.063292    1.800000
  8     Wed Apr 25 08:07:45 CEST 2018   EN: 3.440 GM2: 0.452  GM3:-0.0517  RAES: 1.80
     2s    -20.229985    2.439742
     2p    -15.503117    2.137023
 15     Mon Apr 23 19:31:07 CEST 2018   EN: 2.190 GM2: 0.298  GM3: 0.0711  RAES: 2.10
     3s    -17.518756    1.816945
     3p     -9.842286    1.903247
     3d     -0.444893    1.167533

           ------------------------------------------------- 
          |        Self-Consistent Charge Iterations        |
           ------------------------------------------------- 

          ...................................................
          :                      SETUP                      :
          :.................................................:
          :  # basis functions                 145          :
          :  # atomic orbitals                 144          :
          :  # shells                           82          :
          :  # electrons                       144          :
          :  max. iterations                   250          :
          :  Hamiltonian                  GFN2-xTB          :
          :  restarted?                      false          :
          :  GBSA solvation                  false          :
          :  PC potential                    false          :
          :  electronic temp.          300.0000000     K    :
          :  accuracy                    1.0000000          :
          :  -> integral cutoff          0.2500000E+02      :
          :  -> integral neglect         0.1000000E-07      :
          :  -> SCF convergence          0.1000000E-05 Eh   :
          :  -> wf. convergence          0.1000000E-03 e    :
          :  Broyden damping             0.4000000          :
          ...................................................

 iter      E             dE          RMSdq      gap      omega  full diag
   1    -79.1847906 -0.791848E+02  0.484E+00    2.30       0.0  T
   2    -79.2510087 -0.662182E-01  0.278E+00    2.00       1.0  T
   3    -79.2220460  0.289627E-01  0.110E+00    2.43       1.0  T
   4    -79.2613277 -0.392817E-01  0.495E-01    2.14       1.0  T
   5    -79.2658591 -0.453132E-02  0.212E-01    2.20       1.0  T
   6    -79.2664791 -0.620021E-03  0.118E-01    2.19       1.0  T
   7    -79.2667763 -0.297211E-03  0.552E-02    2.19       1.0  T
   8    -79.2668225 -0.461783E-04  0.243E-02    2.19       1.0  T
   9    -79.2668358 -0.133235E-04  0.719E-03    2.19       1.9  T
  10    -79.2668369 -0.105588E-05  0.436E-03    2.19       3.2  T
  11    -79.2668371 -0.213713E-06  0.136E-03    2.19      10.2  T
  12    -79.2668371 -0.485779E-07  0.439E-04    2.19      31.6  T
  13    -79.2668371 -0.466382E-08  0.193E-04    2.19      72.0  T

   *** convergence criteria satisfied after 13 iterations ***

         #    Occupation            Energy/Eh            Energy/eV
      -------------------------------------------------------------
         1        2.0000           -0.7529449             -20.4887
       ...           ...                  ...                  ...
        66        2.0000           -0.4022131             -10.9448
        67        2.0000           -0.3949333             -10.7467
        68        2.0000           -0.3927408             -10.6870
        69        2.0000           -0.3869067             -10.5283
        70        2.0000           -0.3842047             -10.4547
        71        2.0000           -0.3748123             -10.1992
        72        2.0000           -0.3302641              -8.9869 (HOMO)
        73                         -0.2497036              -6.7948 (LUMO)
        74                         -0.2290994              -6.2341
        75                         -0.2223276              -6.0498
        76                         -0.2193005              -5.9675
        77                         -0.2121525              -5.7730
       ...                                ...                  ...
       144                          1.2528139              34.0908
      -------------------------------------------------------------
                  HL-Gap            0.0805604 Eh            2.1922 eV
             Fermi-level           -0.2899839 Eh           -7.8909 eV

 SCC (total)                   0 d,  0 h,  0 min,  0.124 sec
 SCC setup                      ...        0 min,  0.001 sec (  0.547%)
 Dispersion                     ...        0 min,  0.001 sec (  0.901%)
 integral evaluation            ...        0 min,  0.047 sec ( 37.609%)
 zeroth order Hamiltonian       ...        0 min,  0.000 sec (  0.386%)
 iterations                     ...        0 min,  0.037 sec ( 29.435%)
 molecular gradient             ...        0 min,  0.038 sec ( 30.902%)
 printout                       ...        0 min,  0.000 sec (  0.190%)

         :::::::::::::::::::::::::::::::::::::::::::::::::::::
         ::                     SUMMARY                     ::
         :::::::::::::::::::::::::::::::::::::::::::::::::::::
         :: total energy             -78.025636787435 Eh    ::
         :: gradient norm              0.186374629450 Eh/a0 ::
         :: HOMO-LUMO gap              2.192160672339 eV    ::
         ::.................................................::
         :: SCC energy               -79.266837123364 Eh    ::
         :: -> isotropic ES            0.044352223523 Eh    ::
         :: -> anisotropic ES          0.011161549504 Eh    ::
         :: -> anisotropic XC          0.044394324929 Eh    ::
         :: -> dispersion             -0.066527192027 Eh    ::
         :: repulsion energy           1.241078122413 Eh    ::
         :: add. restraining           0.000000000000 Eh    ::
         :::::::::::::::::::::::::::::::::::::::::::::::::::::

           -------------------------------------------------
          |                Property Printout                |
           -------------------------------------------------

    * Orbital Energies and Occupations

         #    Occupation            Energy/Eh            Energy/eV
      -------------------------------------------------------------
         1        2.0000           -0.7529449             -20.4887
       ...           ...                  ...                  ...
        60        2.0000           -0.4248942             -11.5620
        61        2.0000           -0.4191384             -11.4053
        62        2.0000           -0.4143083             -11.2739
        63        2.0000           -0.4109925             -11.1837
        64        2.0000           -0.4051666             -11.0251
        65        2.0000           -0.4029218             -10.9641
        66        2.0000           -0.4022131             -10.9448
        67        2.0000           -0.3949333             -10.7467
        68        2.0000           -0.3927408             -10.6870
        69        2.0000           -0.3869067             -10.5283
        70        2.0000           -0.3842047             -10.4547
        71        2.0000           -0.3748123             -10.1992
        72        2.0000           -0.3302641              -8.9869 (HOMO)
        73                         -0.2497036              -6.7948 (LUMO)
        74                         -0.2290994              -6.2341
        75                         -0.2223276              -6.0498
        76                         -0.2193005              -5.9675
        77                         -0.2121525              -5.7730
        78                         -0.2108477              -5.7375
        79                         -0.2050135              -5.5787
        80                         -0.1569372              -4.2705
        81                         -0.1232937              -3.3550
        82                         -0.1108206              -3.0156
        83                         -0.1023542              -2.7852
       ...                                ...                  ...
       144                          1.2528139              34.0908
      -------------------------------------------------------------
                  HL-Gap            0.0805604 Eh            2.1922 eV
             Fermi-level           -0.2899839 Eh           -7.8909 eV

     #   Z        covCN         q      C6AA      α(0)
     1   6 C      3.747    -0.101    22.492     6.764
     2   6 C      2.960     0.011    27.762     8.642
     3   6 C      2.912    -0.043    29.061     8.840
     4   6 C      2.912    -0.040    28.990     8.829
     5   6 C      2.969     0.007    27.858     8.657
     6   6 C      2.954    -0.034    28.857     8.811
     7   6 C      3.053    -0.036    28.847     8.808
     8   6 C      2.895    -0.091    30.276     9.021
     9   6 C      3.112     0.018    27.455     8.584
    10   6 C      2.914    -0.037    28.928     8.820
    11   6 C      2.909    -0.032    28.790     8.798
    12   6 C      2.911    -0.037    28.917     8.818
    13   6 C      2.909    -0.034    28.852     8.808
    14   6 C      2.913    -0.044    29.084     8.843
    15  15 P      5.067     0.350   145.626    21.677
    16   8 O      1.658    -0.259    18.307     5.776
    17   6 C      4.221     0.081    19.151     6.215
    18   6 C      4.217     0.082    19.144     6.214
    19   8 O      1.658    -0.262    18.350     5.783
    20   6 C      2.897    -0.043    29.068     8.840
    21   6 C      3.020     0.014    27.670     8.629
    22   6 C      2.914    -0.034    28.858     8.809
    23   6 C      2.909    -0.030    28.745     8.791
    24   6 C      2.911    -0.034    28.836     8.805
    25   6 C      2.909    -0.033    28.811     8.801
    26   6 C      2.914    -0.040    28.995     8.830
    27   6 C      3.031    -0.036    28.861     8.812
    28   6 C      2.912    -0.039    28.980     8.827
    29   6 C      2.911    -0.042    29.048     8.838
    30   1 H      0.921     0.036     2.498     2.472
    31   1 H      0.922     0.042     2.423     2.435
    32   1 H      0.921     0.036     2.497     2.471
    33   1 H      0.925     0.026     2.642     2.542
    34   1 H      0.925     0.026     2.651     2.546
    35   1 H      0.925     0.041     2.433     2.439
    36   1 H      0.925     0.031     2.567     2.505
    37   1 H      0.925     0.028     2.611     2.527
    38   1 H      0.925     0.026     2.650     2.546
    39   1 H      0.925     0.024     2.669     2.555
    40   1 H      0.926     0.032     2.552     2.498
    41   1 H      0.921     0.048     2.350     2.398
    42   1 H      0.922     0.054     2.276     2.359
    43   1 H      0.922     0.052     2.301     2.373
    44   1 H      0.921     0.049     2.330     2.387
    45   1 H      0.925     0.034     2.529     2.487
    46   1 H      0.925     0.033     2.546     2.495
    47   1 H      0.925     0.030     2.582     2.513
    48   1 H      0.925     0.029     2.603     2.523
    49   1 H      0.926     0.038     2.476     2.461
    50   1 H      0.925     0.048     2.351     2.398
    51   1 H      0.925     0.027     2.632     2.537
    52   1 H      0.925     0.027     2.633     2.537

 Mol. C6AA /au·bohr⁶  :      37478.399368
 Mol. C8AA /au·bohr⁸  :     978373.798581
 Mol. α(0) /au        :        311.695500


Wiberg/Mayer (AO) data.
largest (>0.10) Wiberg bond orders for each atom
          total WBO             WBO to atom ...
     1  C   3.997        C    2 1.026    H   32 0.982    H   30 0.982    H   31 0.968
     2  C   3.980        C    3 1.406    C   29 1.405    C    1 1.026    C    5 0.100
     3  C   3.990        C    4 1.453    C    2 1.406    H   33 0.970    C   28 0.107
     4  C   3.985        C    3 1.453    C    5 1.388    H   34 0.970    C   29 0.106
     5  C   3.986        C    4 1.388    C   28 1.386    C    6 1.041    C    2 0.100
     6  C   3.966        C    7 1.542    C   27 1.195    C    5 1.041
     7  C   3.978        C    6 1.542    C    8 1.240    H   35 0.964
     8  C   3.912        P   15 1.293    C    7 1.240    C    9 1.033
     9  C   3.985        C   10 1.380    C   14 1.380    C    8 1.033    C   12 0.101
    10  C   3.989        C   11 1.451    C    9 1.380    H   36 0.970    C   13 0.108
    11  C   3.991        C   10 1.451    C   12 1.432    H   37 0.972    C   14 0.107
    12  C   3.975        C   13 1.433    C   11 1.432    H   38 0.972    C    9 0.101
    13  C   3.991        C   14 1.449    C   12 1.433    H   39 0.972    C   10 0.108
    14  C   3.984        C   13 1.449    C    9 1.380    H   40 0.964    C   11 0.107
    15  P   5.051        C    8 1.293    O   16 1.167    O   19 1.163    C   20 1.042
    16  O   2.335        P   15 1.167    C   17 0.961
    17  C   3.943        C   18 0.975    H   42 0.969    H   41 0.968    O   16 0.961
    18  C   3.942        C   17 0.975    H   43 0.969    H   44 0.968    O   19 0.960
    19  O   2.330        P   15 1.163    C   18 0.960
    20  C   3.958        C   27 1.591    P   15 1.042    C   21 1.031
    21  C   3.985        C   26 1.386    C   22 1.383    C   20 1.031    C   24 0.103
    22  C   3.988        C   23 1.450    C   21 1.383    H   45 0.970    C   25 0.109
    23  C   3.990        C   22 1.450    C   24 1.433    H   46 0.971    C   26 0.108
    24  C   3.977        C   25 1.435    C   23 1.433    H   47 0.972    C   21 0.103
    25  C   3.991        C   26 1.447    C   24 1.435    H   48 0.972    C   22 0.109
    26  C   3.985        C   25 1.447    C   21 1.386    H   49 0.963    C   23 0.108
    27  C   3.978        C   20 1.591    C    6 1.195    H   50 0.961
    28  C   3.985        C   29 1.454    C    5 1.386    H   51 0.970    C    3 0.107
    29  C   3.990        C   28 1.454    C    2 1.405    H   52 0.970    C    4 0.106
    30  H   0.998        C    1 0.982
    31  H   0.997        C    1 0.968
    32  H   0.998        C    1 0.982
    33  H   0.999        C    3 0.970
    34  H   0.999        C    4 0.970
    35  H   0.998        C    7 0.964
    36  H   0.999        C   10 0.970
    37  H   0.999        C   11 0.972
    38  H   0.999        C   12 0.972
    39  H   0.999        C   13 0.972
    40  H   0.999        C   14 0.964
    41  H   0.998        C   17 0.968
    42  H   0.996        C   17 0.969
    43  H   0.996        C   18 0.969
    44  H   0.997        C   18 0.968
    45  H   0.999        C   22 0.970
    46  H   0.998        C   23 0.971
    47  H   0.999        C   24 0.972
    48  H   0.998        C   25 0.972
    49  H   0.999        C   26 0.963
    50  H   0.997        C   27 0.961
    51  H   0.999        C   28 0.970
    52  H   0.999        C   29 0.970

molecular dipole:
                 x           y           z       tot (Debye)
 q only:        1.189       0.034       0.069
   full:        1.414       0.085       0.085       3.607
molecular quadrupole (traceless):
                xx          xy          yy          xz          yz          zz
 q only:       13.922       6.258      -3.802      -1.126       1.155     -10.120
  q+dip:       14.315       4.235       2.066      -2.650       3.916     -16.380
   full:       15.050       6.185      -1.552      -1.747       1.796     -13.499


           -------------------------------------------------
          | TOTAL ENERGY              -78.025636787435 Eh   |
          | GRADIENT NORM               0.186374629450 Eh/α |
          | HOMO-LUMO GAP               2.192160672339 eV   |
           -------------------------------------------------

------------------------------------------------------------------------
 * finished run on 2026/01/19 at 14:12:18.837     
------------------------------------------------------------------------
 total:
 * wall-time:     0 d,  0 h,  0 min,  0.498 sec
 *  cpu-time:     0 d,  0 h,  0 min,  0.202 sec
 * ratio c/w:     0.405 speedup
 SCF:
 * wall-time:     0 d,  0 h,  0 min,  0.124 sec
 *  cpu-time:     0 d,  0 h,  0 min,  0.124 sec
 * ratio c/w:     0.999 speedup


-------------------------   --------------------
FINAL SINGLE POINT ENERGY         0.000000000000
-------------------------   --------------------

------------------------------------------------------------------------------
                         ORCA GEOMETRY RELAXATION STEP
------------------------------------------------------------------------------

Reading the OPT-File                    .... done
Getting information on internals        .... done
Copying old internal coords+grads       .... done
Making the new internal coordinates     .... (new redundants).... done
Validating the new internal coordinates .... (new redundants).... done
Calculating the B-matrix                .... done
Calculating the G,G- and P matrices     .... done
Transforming gradient to internals      .... done
Projecting the internal gradient        .... done
Number of atoms                         ....  52
Number of internal coordinates          .... 361
Current Energy                          ....     0.000000000 Eh
Current gradient norm                   ....     0.186374629 Eh/bohr
Maximum allowed component of the step   ....  0.300
Current trust radius                    ....  0.300
Evaluating the initial hessian          ....  (Almloef) done
Projecting the Hessian                  .... done
Forming the augmented Hessian           .... done
Diagonalizing the augmented Hessian     .... done
Last element of RFO vector              ....  0.953449862
Lowest eigenvalues of augmented Hessian:
 -0.035475357  0.009675078  0.012872951  0.013255907  0.013598910
Length of the computed step             ....  0.316274196
Warning: the length of the step is outside the trust region - taking restricted step instead
The input lambda is                     ....    -0.035475
   iter:   1  x=   -0.044669  g=    1.090890 f(x)=     0.010029
   iter:   2  x=   -0.046235  g=    0.831054 f(x)=     0.001301
   iter:   3  x=   -0.046267  g=    0.798595 f(x)=     0.000026
   iter:   4  x=   -0.046267  g=    0.797953 f(x)=     0.000000
   iter:   5  x=   -0.046267  g=    0.797953 f(x)=     0.000000
The output lambda is                    ....    -0.046267 (5 iterations)
The final length of the internal step   ....  0.300000000
Converting the step to cartesian space:
 Initial RMS(Int)=    0.0157894737
Transforming coordinates:
 Iter   0:  RMS(Cart)=    0.0502428614 RMS(Int)=    0.6613724596
 Iter   1:  RMS(Cart)=    0.0005669099 RMS(Int)=    0.3306844591
 Iter   2:  RMS(Cart)=    0.0000132350 RMS(Int)=    0.0000037918
 Iter   3:  RMS(Cart)=    0.0000002358 RMS(Int)=    0.0000000820
 Iter   4:  RMS(Cart)=    0.0000000067 RMS(Int)=    0.0000000019
done
Storing new coordinates                 .... done

                                .--------------------.
          ----------------------|Geometry convergence|-------------------------
          Item                value                   Tolerance       Converged
          ---------------------------------------------------------------------
          RMS gradient        0.0070370364            0.0001000000      NO
          MAX gradient        0.0661711536            0.0003000000      NO
          RMS step            0.0157894737            0.0020000000      NO
          MAX step            0.0939748571            0.0040000000      NO
          ........................................................
          Max(Bonds)      0.0497      Max(Angles)    2.94
          Max(Dihed)        1.88      Max(Improp)    0.00
          ---------------------------------------------------------------------

The optimization has not yet converged - more geometry cycles are needed


    ---------------------------------------------------------------------------
                         Redundant Internal Coordinates
                            (Angstroem and degrees)

        Definition                    Value    dE/dq     Step     New-Value
    ----------------------------------------------------------------------------
     1. B(C   1,C   0)                1.5000  0.000897 -0.0010    1.4989   
     2. B(C   2,C   1)                1.4023  0.014257 -0.0117    1.3906   
     3. B(C   3,C   2)                1.3979  0.014532 -0.0118    1.3861   
     4. B(C   4,C   3)                1.4058  0.014486 -0.0121    1.3937   
     5. B(C   5,C   4)                1.4853  0.009252 -0.0101    1.4752   
     6. B(C   6,C   5)                1.3501 -0.017555  0.0120    1.3621   
     7. B(C   7,C   6)                1.4793  0.047231 -0.0497    1.4295   
     8. B(C   8,C   7)                1.4802  0.007434 -0.0079    1.4722   
     9. B(C   9,C   8)                1.4061  0.013114 -0.0109    1.3952   
    10. B(C  10,C   9)                1.3981  0.014920 -0.0121    1.3860   
    11. B(C  11,C  10)                1.3969  0.012340 -0.0100    1.3869   
    12. B(C  12,C  11)                1.3969  0.012666 -0.0102    1.3867   
    13. B(C  13,C  12)                1.3981  0.014117 -0.0114    1.3867   
    14. B(C  13,C   8)                1.4068  0.014198 -0.0119    1.3950   
    15. B(P  14,C   7)                1.6281 -0.066171  0.0384    1.6665   
    16. B(O  15,P  14)                1.6806  0.015903 -0.0102    1.6703   
    17. B(C  16,O  15)                1.4005  0.001942  0.0034    1.4039   
    18. B(C  16,P  14)                2.4102 -0.013353  0.0425    2.4527   
    19. B(C  17,C  16)                1.5390  0.005985 -0.0054    1.5336   
    20. B(C  17,P  14)                2.4129 -0.013438  0.0421    2.4550   
    21. B(O  18,C  17)                1.4009  0.002069  0.0035    1.4044   
    22. B(O  18,P  14)                1.6811  0.015529 -0.0098    1.6713   
    23. B(C  19,P  14)                1.7902  0.019196 -0.0192    1.7710   
    24. B(C  20,C  19)                1.4817  0.008491 -0.0091    1.4726   
    25. B(C  21,C  20)                1.4073  0.015096 -0.0127    1.3947   
    26. B(C  22,C  21)                1.3981  0.014942 -0.0121    1.3860   
    27. B(C  23,C  22)                1.3967  0.012164 -0.0098    1.3869   
    28. B(C  24,C  23)                1.3968  0.012627 -0.0102    1.3866   
    29. B(C  25,C  24)                1.3982  0.014137 -0.0114    1.3867   
    30. B(C  25,C  20)                1.4060  0.014051 -0.0117    1.3943   
    31. B(C  26,C   5)                1.4892  0.044278 -0.0496    1.4396   
    32. B(C  26,C  19)                1.3401 -0.022158  0.0143    1.3544   
    33. B(C  27,C   4)                1.4067  0.015887 -0.0133    1.3935   
    34. B(C  28,C  27)                1.3978  0.014669 -0.0119    1.3859   
    35. B(C  28,C   1)                1.4023  0.013992 -0.0115    1.3908   
    36. B(H  29,C   0)                1.1109  0.013778 -0.0192    1.0917   
    37. B(H  30,C   0)                1.1100  0.012211 -0.0170    1.0930   
    38. B(H  31,C   0)                1.1109  0.013794 -0.0192    1.0917   
    39. B(H  32,C   2)                1.0831  0.002294 -0.0029    1.0802   
    40. B(H  33,C   3)                1.0830  0.002477 -0.0032    1.0799   
    41. B(H  34,C   6)                1.0842  0.002949 -0.0038    1.0804   
    42. B(H  35,C   9)                1.0832  0.002830 -0.0036    1.0796   
    43. B(H  36,C  10)                1.0823  0.001906 -0.0024    1.0799   
    44. B(H  37,C  11)                1.0823  0.001726 -0.0022    1.0801   
    45. B(H  38,C  12)                1.0823  0.001627 -0.0021    1.0803   
    46. B(H  39,C  13)                1.0811  0.001176 -0.0015    1.0796   
    47. B(H  40,C  16)                1.1123  0.007440 -0.0104    1.1019   
    48. B(H  41,C  16)                1.1104  0.007999 -0.0111    1.0992   
    49. B(H  42,C  17)                1.1104  0.007633 -0.0106    1.0998   
    50. B(H  43,C  17)                1.1122  0.007679 -0.0107    1.1014   
    51. B(H  44,C  21)                1.0831  0.002749 -0.0035    1.0796   
    52. B(H  45,C  22)                1.0823  0.002139 -0.0027    1.0796   
    53. B(H  46,C  23)                1.0823  0.001888 -0.0024    1.0799   
    54. B(H  47,C  24)                1.0824  0.001813 -0.0023    1.0801   
    55. B(H  48,C  25)                1.0808  0.000970 -0.0012    1.0795   
    56. B(H  49,C  26)                1.0840  0.002395 -0.0031    1.0809   
    57. B(H  50,C  27)                1.0831  0.002574 -0.0033    1.0798   
    58. B(H  51,C  28)                1.0831  0.002371 -0.0030    1.0801   
    59. A(H  30,C   0,H  31)          109.05  0.002401   -0.47    108.58   
    60. A(C   1,C   0,H  31)          110.65 -0.000992    0.20    110.85   
    61. A(H  29,C   0,H  30)          109.05  0.002397   -0.47    108.58   
    62. A(C   1,C   0,H  30)          109.42 -0.002540    0.34    109.76   
    63. A(C   1,C   0,H  29)          110.65 -0.000981    0.20    110.85   
    64. A(H  29,C   0,H  31)          107.98 -0.000138    0.18    108.16   
    65. A(C   2,C   1,C  28)          119.39  0.003818   -0.47    118.93   
    66. A(C   0,C   1,C  28)          120.26 -0.001935    0.25    120.51   
    67. A(C   0,C   1,C   2)          120.26 -0.001912    0.24    120.51   
    68. A(C   1,C   2,H  32)          120.38  0.002370   -0.33    120.06   
    69. A(C   1,C   2,C   3)          120.33 -0.001793    0.23    120.56   
    70. A(C   3,C   2,H  32)          119.29 -0.000577    0.10    119.38   
    71. A(C   4,C   3,H  33)          120.54  0.002537   -0.36    120.19   
    72. A(C   2,C   3,H  33)          118.97 -0.001440    0.22    119.19   
    73. A(C   2,C   3,C   4)          120.48 -0.001095    0.14    120.62   
    74. A(C   3,C   4,C  27)          118.98  0.002259   -0.28    118.70   
    75. A(C   5,C   4,C  27)          120.68 -0.000175    0.02    120.70   
    76. A(C   3,C   4,C   5)          120.34 -0.002086    0.26    120.60   
    77. A(C   6,C   5,C  26)          122.82 -0.004603    0.38    123.20   
    78. A(C   4,C   5,C  26)          118.03  0.006627   -0.75    117.28   
    79. A(C   4,C   5,C   6)          119.15 -0.002024    0.37    119.52   
    80. A(C   7,C   6,H  34)          116.61  0.005276   -0.72    115.89   
    81. A(C   5,C   6,C   7)          124.68 -0.005417    0.66    125.34   
    82. A(C   5,C   6,H  34)          118.70  0.000146    0.05    118.75   
    83. A(C   6,C   7,C   8)          119.38 -0.003684    0.42    119.80   
    84. A(C   8,C   7,P  14)          120.20 -0.002903    0.27    120.47   
    85. A(C   6,C   7,P  14)          119.99  0.006592   -0.68    119.31   
    86. A(C   9,C   8,C  13)          119.06  0.001291   -0.16    118.90   
    87. A(C   7,C   8,C  13)          121.08  0.000372   -0.05    121.04   
    88. A(C   7,C   8,C   9)          119.85 -0.001666    0.21    120.06   
    89. A(C  10,C   9,H  35)          119.13 -0.001996    0.30    119.43   
    90. A(C   8,C   9,H  35)          120.48  0.002957   -0.42    120.06   
    91. A(C   8,C   9,C  10)          120.38 -0.000963    0.12    120.51   
    92. A(C   9,C  10,C  11)          120.10 -0.000436    0.05    120.15   
    93. A(C   9,C  10,H  36)          119.96  0.000390   -0.05    119.91   
    94. A(C  11,C  10,H  36)          119.94  0.000047   -0.00    119.94   
    95. A(C  12,C  11,H  37)          120.00 -0.000680    0.08    120.09   
    96. A(C  10,C  11,H  37)          120.01 -0.000782    0.10    120.10   
    97. A(C  10,C  11,C  12)          119.99  0.001463   -0.18    119.81   
    98. A(C  11,C  12,C  13)          120.13 -0.000405    0.05    120.18   
    99. A(C  13,C  12,H  38)          119.94  0.000408   -0.06    119.89   
   100. A(C  11,C  12,H  38)          119.93 -0.000002    0.00    119.93   
   101. A(C   8,C  13,C  12)          120.34 -0.000951    0.12    120.46   
   102. A(C   8,C  13,H  39)          120.82  0.003121   -0.44    120.38   
   103. A(C  12,C  13,H  39)          118.84 -0.002170    0.32    119.16   
   104. A(C  16,P  14,O  18)           69.85  0.008447   -1.90     67.95   
   105. A(O  15,P  14,O  18)          103.82  0.013363   -2.94    100.88   
   106. A(C   7,P  14,O  18)          110.36 -0.005807    1.06    111.42   
   107. A(C  16,P  14,C  17)           37.22  0.003365   -0.81     36.40   
   108. A(O  15,P  14,C  17)           69.74  0.008270   -1.87     67.87   
   109. A(C   7,P  14,C  17)          118.52 -0.004701    0.57    119.09   
   110. A(O  15,P  14,C  16)           34.55  0.004898   -1.05     33.51   
   111. A(O  18,P  14,C  19)          111.77 -0.004132    0.64    112.41   
   112. A(C  17,P  14,C  19)          128.87 -0.001830   -0.05    128.82   
   113. A(C  16,P  14,C  19)          117.25 -0.001982   -0.12    117.12   
   114. A(C   7,P  14,C  16)          130.08 -0.004530    0.56    130.64   
   115. A(O  15,P  14,C  19)          110.13 -0.003664    0.41    110.54   
   116. A(C   7,P  14,C  19)          108.80  0.006211   -0.31    108.48   
   117. A(C   7,P  14,O  15)          111.94 -0.006193    1.12    113.06   
   118. A(C  17,P  14,O  18)           34.50  0.004947   -1.03     33.47   
   119. A(P  14,O  15,C  16)          102.56 -0.015475    2.91    105.47   
   120. A(O  15,C  16,C  17)          110.47  0.008485   -1.45    109.02   
   121. A(P  14,C  16,O  15)           42.89  0.010577   -1.86     41.03   
   122. A(C  17,C  16,H  40)          109.82 -0.000819    0.15    109.98   
   123. A(H  40,C  16,H  41)          108.20 -0.000338    0.15    108.35   
   124. A(C  17,C  16,H  41)          109.83  0.001251   -0.01    109.81   
   125. A(P  14,C  16,H  41)          141.37  0.000723   -0.39    140.98   
   126. A(O  15,C  16,H  40)          109.06 -0.001351    0.32    109.38   
   127. A(P  14,C  16,C  17)           71.49 -0.001715    0.39     71.88   
   128. A(P  14,C  16,H  40)          107.13  0.000066    0.00    107.13   
   129. A(O  15,C  16,H  41)          109.42 -0.007468    0.88    110.29   
   130. A(P  14,C  17,C  16)           71.30 -0.001650    0.42     71.72   
   131. A(H  42,C  17,H  43)          108.20 -0.000301    0.16    108.36   
   132. A(P  14,C  17,H  43)          107.83  0.000391   -0.13    107.70   
   133. A(C  16,C  17,H  43)          109.79 -0.001327    0.29    110.07   
   134. A(O  18,C  17,H  42)          109.42 -0.007501    0.87    110.28   
   135. A(C  16,C  17,H  42)          109.82  0.001545   -0.11    109.72   
   136. A(P  14,C  17,H  42)          140.75  0.000342   -0.26    140.49   
   137. A(O  18,C  17,H  43)          109.03 -0.001395    0.34    109.37   
   138. A(C  16,C  17,O  18)          110.53  0.008732   -1.50    109.04   
   139. A(P  14,C  17,O  18)           42.82  0.010475   -1.84     40.99   
   140. A(P  14,O  18,C  17)          102.67 -0.015422    2.87    105.54   
   141. A(C  20,C  19,C  26)          120.54 -0.009988    1.30    121.84   
   142. A(P  14,C  19,C  26)          119.54  0.004755   -0.74    118.80   
   143. A(P  14,C  19,C  20)          119.85  0.005240   -0.57    119.28   
   144. A(C  21,C  20,C  25)          119.02  0.000061   -0.02    119.00   
   145. A(C  19,C  20,C  25)          120.73 -0.000113    0.02    120.74   
   146. A(C  19,C  20,C  21)          120.26  0.000053   -0.00    120.25   
   147. A(C  22,C  21,H  44)          119.08 -0.002176    0.32    119.40   
   148. A(C  20,C  21,H  44)          120.52  0.002548   -0.36    120.16   
   149. A(C  20,C  21,C  22)          120.39 -0.000373    0.04    120.43   
   150. A(C  23,C  22,H  45)          119.94 -0.000047    0.01    119.96   
   151. A(C  21,C  22,H  45)          119.96  0.000586   -0.08    119.88   
   152. A(C  21,C  22,C  23)          120.09 -0.000538    0.07    120.16   
   153. A(C  24,C  23,H  46)          120.01 -0.000606    0.07    120.08   
   154. A(C  22,C  23,H  46)          120.01 -0.000674    0.08    120.09   
   155. A(C  22,C  23,C  24)          119.98  0.001280   -0.16    119.83   
   156. A(C  25,C  24,H  47)          119.94  0.000230   -0.04    119.90   
   157. A(C  23,C  24,H  47)          119.93 -0.000241    0.03    119.96   
   158. A(C  23,C  24,C  25)          120.13  0.000011    0.01    120.14   
   159. A(C  24,C  25,H  48)          118.80 -0.002453    0.36    119.15   
   160. A(C  20,C  25,H  48)          120.81  0.002896   -0.41    120.40   
   161. A(C  20,C  25,C  24)          120.38 -0.000441    0.06    120.44   
   162. A(C   5,C  26,C  19)          124.16 -0.007533    0.68    124.85   
   163. A(C  19,C  26,H  49)          118.36  0.001372    0.02    118.37   
   164. A(C   5,C  26,H  49)          117.47  0.006162   -0.70    116.77   
   165. A(C   4,C  27,C  28)          120.47 -0.001051    0.13    120.60   
   166. A(C  28,C  27,H  50)          118.99 -0.001596    0.24    119.23   
   167. A(C   4,C  27,H  50)          120.53  0.002644   -0.37    120.16   
   168. A(C   1,C  28,C  27)          120.32 -0.002147    0.27    120.59   
   169. A(C  27,C  28,H  51)          119.29 -0.000339    0.07    119.36   
   170. A(C   1,C  28,H  51)          120.38  0.002485   -0.34    120.05   
   171. D(C   2,C   1,C   0,H  31)   -151.51  0.000490    0.00   -151.50   
   172. D(C  28,C   1,C   0,H  31)     31.79  0.000958   -0.48     31.31   
   173. D(C   2,C   1,C   0,H  30)     88.32 -0.000235    0.24     88.56   
   174. D(C  28,C   1,C   0,H  30)    -88.39  0.000234   -0.24    -88.63   
   175. D(C   2,C   1,C   0,H  29)    -31.86 -0.000962    0.48    -31.38   
   176. D(C  28,C   1,C   0,H  29)    151.44 -0.000493   -0.00    151.44   
   177. D(H  32,C   2,C   1,C  28)    178.73 -0.000573    0.44    179.18   
   178. D(H  32,C   2,C   1,C   0)      2.00  0.000078   -0.06      1.94   
   179. D(C   3,C   2,C   1,C  28)     -1.47 -0.000443    0.34     -1.13   
   180. D(C   3,C   2,C   1,C   0)   -178.21  0.000208   -0.16   -178.37   
   181. D(C   4,C   3,C   2,H  32)   -179.67  0.000297   -0.24   -179.92   
   182. D(H  33,C   3,C   2,H  32)      1.05  0.000136   -0.12      0.93   
   183. D(C   4,C   3,C   2,C   1)      0.53  0.000163   -0.14      0.39   
   184. D(H  33,C   3,C   2,C   1)   -178.75  0.000001   -0.02   -178.76   
   185. D(C   5,C   4,C   3,C   2)    179.78 -0.000260    0.22    180.00   
   186. D(C  27,C   4,C   3,C   2)      0.38  0.000018   -0.03      0.36   
   187. D(C   5,C   4,C   3,H  33)     -0.95 -0.000125    0.10     -0.85   
   188. D(C  27,C   4,C   3,H  33)    179.65  0.000153   -0.15    179.50   
   189. D(C  26,C   5,C   4,C   3)    -45.87 -0.000725    0.68    -45.19   
   190. D(C  26,C   5,C   4,C  27)    133.52 -0.000993    0.93    134.45   
   191. D(C   6,C   5,C   4,C  27)    -46.95 -0.001002    0.98    -45.97   
   192. D(C   6,C   5,C   4,C   3)    133.66 -0.000734    0.73    134.39   
   193. D(H  34,C   6,C   5,C   4)     -1.11 -0.000144    0.06     -1.05   
   194. D(H  34,C   6,C   5,C  26)    178.39 -0.000097    0.11    178.50   
   195. D(C   7,C   6,C   5,C  26)     -0.11 -0.000411    0.30      0.19   
   196. D(C   7,C   6,C   5,C   4)   -179.62 -0.000457    0.26   -179.36   
   197. D(C   8,C   7,C   6,C   5)   -173.54  0.000567   -0.44   -173.98   
   198. D(P  14,C   7,C   6,C   5)     -1.02  0.000382   -0.34     -1.37   
   199. D(P  14,C   7,C   6,H  34)   -179.55  0.000141   -0.16   -179.72   
   200. D(C   8,C   7,C   6,H  34)      7.93  0.000325   -0.26      7.67   
   201. D(C   9,C   8,C   7,C   6)     48.28  0.001729   -1.41     46.87   
   202. D(C   9,C   8,C   7,P  14)   -124.22  0.001190   -1.43   -125.65   
   203. D(C  13,C   8,C   7,P  14)     56.24  0.001710   -1.88     54.36   
   204. D(C  13,C   8,C   7,C   6)   -131.26  0.002249   -1.85   -133.12   
   205. D(H  35,C   9,C   8,C  13)   -179.84 -0.000150    0.14   -179.70   
   206. D(H  35,C   9,C   8,C   7)      0.62  0.000363   -0.30      0.32   
   207. D(C  10,C   9,C   8,C  13)     -0.73 -0.000279    0.24     -0.49   
   208. D(C  10,C   9,C   8,C   7)    179.73  0.000234   -0.20    179.52   
   209. D(C  11,C  10,C   9,C   8)      0.26  0.000250   -0.21      0.04   
   210. D(H  36,C  10,C   9,H  35)     -0.49  0.000009    0.00     -0.49   
   211. D(H  36,C  10,C   9,C   8)   -179.62  0.000093   -0.08   -179.70   
   212. D(C  11,C  10,C   9,H  35)    179.38  0.000167   -0.12    179.25   
   213. D(C  12,C  11,C  10,H  36)   -179.93  0.000081   -0.07   -179.99   
   214. D(C  12,C  11,C  10,C   9)      0.20 -0.000076    0.06      0.26   
   215. D(H  37,C  11,C  10,H  36)     -0.13  0.000042   -0.03     -0.16   
   216. D(H  37,C  11,C  10,C   9)    179.99 -0.000116    0.10    180.09   
   217. D(H  38,C  12,C  11,H  37)     -0.28  0.000084   -0.06     -0.34   
   218. D(H  38,C  12,C  11,C  10)    179.52  0.000044   -0.02    179.49   
   219. D(C  13,C  12,C  11,H  37)   -179.97 -0.000032    0.03   -179.94   
   220. D(C  13,C  12,C  11,C  10)     -0.18 -0.000072    0.06     -0.11   
   221. D(C   8,C  13,C  12,H  38)   -180.00 -0.000064    0.05   -179.95   
   222. D(C   8,C  13,C  12,C  11)     -0.30  0.000051   -0.04     -0.34   
   223. D(H  39,C  13,C   8,C   9)   -178.17  0.000183   -0.14   -178.31   
   224. D(H  39,C  13,C  12,C  11)    178.64  0.000055   -0.02    178.62   
   225. D(H  39,C  13,C   8,C   7)      1.37 -0.000346    0.31      1.68   
   226. D(H  39,C  13,C  12,H  38)     -1.05 -0.000060    0.07     -0.99   
   227. D(C  12,C  13,C   8,C   9)      0.75  0.000130   -0.11      0.64   
   228. D(C  12,C  13,C   8,C   7)   -179.71 -0.000399    0.33   -179.37   
   229. D(O  15,P  14,C   7,C   8)    -64.29 -0.004741    1.26    -63.03   
   230. D(C  16,P  14,C   7,C   6)    158.03 -0.000894    0.41    158.43   
   231. D(C  16,P  14,C   7,C   8)    -29.52 -0.001131    0.51    -29.01   
   232. D(O  15,P  14,C   7,C   6)    123.26 -0.004504    1.15    124.42   
   233. D(C  17,P  14,C   7,C   6)   -158.63  0.000913   -0.34   -158.98   
   234. D(C  19,P  14,C   7,C   8)    173.78 -0.000351    0.23    174.01   
   235. D(C  19,P  14,C   7,C   6)      1.33 -0.000114    0.12      1.45   
   236. D(O  18,P  14,C   7,C   8)     50.81  0.004438   -1.04     49.76   
   237. D(O  18,P  14,C   7,C   6)   -121.64  0.004674   -1.15   -122.79   
   238. D(C  17,P  14,C   7,C   8)     13.82  0.000676   -0.24     13.58   
   239. D(C  16,O  15,P  14,C  19)   -109.12 -0.001098    0.67   -108.45   
   240. D(C  16,O  15,P  14,C  17)     16.13 -0.000818    0.19     16.32   
   241. D(C  16,O  15,P  14,C   7)    129.71 -0.002289    0.04    129.75   
   242. D(C  16,O  15,P  14,O  18)     10.68 -0.000228   -0.03     10.65   
   243. D(H  41,C  16,O  15,P  14)   -146.89 -0.001333    0.07   -146.82   
   244. D(H  40,C  16,O  15,P  14)     94.93  0.004205   -0.81     94.12   
   245. D(H  41,C  16,P  14,C  19)    141.87  0.001290   -0.70    141.17   
   246. D(H  41,C  16,P  14,O  18)   -113.33  0.000698   -0.76   -114.09   
   247. D(H  41,C  16,P  14,C  17)    -98.85  0.000174   -0.51    -99.37   
   248. D(H  41,C  16,P  14,C   7)    -13.22  0.000675   -0.98    -14.20   
   249. D(H  40,C  16,P  14,C  19)    -13.56 -0.000171    0.07    -13.48   
   250. D(H  40,C  16,P  14,O  18)     91.24 -0.000763    0.01     91.25   
   251. D(H  40,C  16,P  14,C  17)    105.72 -0.001287    0.26    105.98   
[...]
     13, 1989-2009. DOI: 10.1021/acs.jctc.7b00118
   * C. Bannwarth, S. Ehlert and S. Grimme., J. Chem. Theory Comput., 2019,
     15, 1652-1671. DOI: 10.1021/acs.jctc.8b01176
   * P. Pracht, E. Caldeweyher, S. Ehlert, S. Grimme, ChemRxiv, 2019, preprint.
     DOI: 10.26434/chemrxiv.8326202.v1
   
   for DFT-D4:
   * E. Caldeweyher, C. Bannwarth and S. Grimme, J. Chem. Phys., 2017,
     147, 034112. DOI: 10.1063/1.4993215
   * E. Caldeweyher, S. Ehlert, A. Hansen, H. Neugebauer, S. Spicher,
     C. Bannwarth and S. Grimme, J. Chem. Phys., 2019, 150, 154122.
     DOI: 10.1063/1.5090222
   
   for sTDA-xTB:
   * S. Grimme and C. Bannwarth, J. Chem. Phys., 2016, 145, 054103.
     DOI: 10.1063/1.4959605
   
   in the mass-spec context:
   * V. Asgeirsson, C. Bauer and S. Grimme, Chem. Sci., 2017, 8, 4879.
     DOI: 10.1039/c7sc00601b
   
   for metadynamics refer to:
   * S. Grimme, J. Chem. Theory Comput., 2019, 155, 2847-2862
     DOI: 10.1021/acs.jctc.9b00143
   
   with help from (in alphabetical order)
   C. Bannwarth, F. Bohle, G. Brandenburg, E. Caldeweyher, M. Checinski,
   S. Dohm, S. Ehlert, S. Ehrlich, F. März, H. Neugebauer, J. Pisarek,
   P. Pracht, P. Shushkov, and S. Spicher.
   
 * started run on 2026/01/19 at 14:12:48.684     

           -------------------------------------------------
          |                Calculation Setup                |
           -------------------------------------------------

          program call               : /appl/orca_4.2.1/orca_4_2_1_linux_x86-64_openmpi314/xtb pre_opt_XTB.xyz --grad -c 0 -u 0 -P 1 --namespace pre_opt
          hostname                   : cnode10
          calculation namespace      : pre_opt
          coordinate file            : pre_opt_XTB.xyz
          omp threads                :                     1
          number of atoms            :                    52
          number of electrons        :                   144
          charge                     :                     0
          spin                       :                   0.0
          first test random number   :      0.78400432627665

########################################################################
[WARNING] Please study the warnings concerning your input carefully
-2- prog_main: XTBPATH is not set, using XTBHOME instead
-1- prog_main: XTBHOME is not set, using HOME instead
########################################################################
           ------------------------------------------------- 
          |                 G F N 2 - x T B                 |
          | Geometry, Frequencies, Noncovalent interactions |
          |            JCTC 2019 parametrisation            |
           ------------------------------------------------- 
             k(s)              :                1.8500
             k(p)              :                2.2300
             k(d)              :                2.2300
             k(f)              :                2.0000
             kEN (H0ij)        :               -2.0000
             D4 a1             :                0.5200
             D4 a2             :                5.0000
             D4 s6             :                1.0000
             D4 s8             :                2.7000
             D4 s9             :                5.0000
             alphaj            :                2.0000

  Z AO/shell   Hii/eV     exponent
  1     Wed Apr 25 08:07:45 CEST 2018   EN: 2.200 GM2: 0.406  GM3: 0.0800  RAES: 1.40
     1s    -10.707211    1.230000
  6     Wed Apr 25 08:07:45 CEST 2018   EN: 2.550 GM2: 0.538  GM3: 0.1500  RAES: 3.00
     2s    -13.970922    2.096432
     2p    -10.063292    1.800000
  8     Wed Apr 25 08:07:45 CEST 2018   EN: 3.440 GM2: 0.452  GM3:-0.0517  RAES: 1.80
     2s    -20.229985    2.439742
     2p    -15.503117    2.137023
 15     Mon Apr 23 19:31:07 CEST 2018   EN: 2.190 GM2: 0.298  GM3: 0.0711  RAES: 2.10
     3s    -17.518756    1.816945
     3p     -9.842286    1.903247
     3d     -0.444893    1.167533

           ------------------------------------------------- 
          |        Self-Consistent Charge Iterations        |
           ------------------------------------------------- 

          ...................................................
          :                      SETUP                      :
          :.................................................:
          :  # basis functions                 145          :
          :  # atomic orbitals                 144          :
          :  # shells                           82          :
          :  # electrons                       144          :
          :  max. iterations                   250          :
          :  Hamiltonian                  GFN2-xTB          :
          :  restarted?                      false          :
          :  GBSA solvation                  false          :
          :  PC potential                    false          :
          :  electronic temp.          300.0000000     K    :
          :  accuracy                    1.0000000          :
          :  -> integral cutoff          0.2500000E+02      :
          :  -> integral neglect         0.1000000E-07      :
          :  -> SCF convergence          0.1000000E-05 Eh   :
          :  -> wf. convergence          0.1000000E-03 e    :
          :  Broyden damping             0.4000000          :
          ...................................................

 iter      E             dE          RMSdq      gap      omega  full diag
   1    -79.3067994 -0.793068E+02  0.459E+00    2.17       0.0  T
   2    -79.3718010 -0.650015E-01  0.269E+00    2.09       1.0  T
   3    -79.3622280  0.957294E-02  0.856E-01    2.27       1.0  T
   4    -79.3802453 -0.180173E-01  0.405E-01    2.22       1.0  T
   5    -79.3838260 -0.358066E-02  0.170E-01    2.22       1.0  T
   6    -79.3845865 -0.760496E-03  0.869E-02    2.22       1.0  T
   7    -79.3846299 -0.434830E-04  0.460E-02    2.22       1.0  T
   8    -79.3846468 -0.168624E-04  0.133E-02    2.22       1.0  T
   9    -79.3846550 -0.818107E-05  0.531E-03    2.22       2.6  T
  10    -79.3846550 -0.562985E-07  0.202E-03    2.22       6.9  T
  11    -79.3846552 -0.112170E-06  0.567E-04    2.22      24.4  T
  12    -79.3846552 -0.346341E-08  0.266E-04    2.22      52.2  T

   *** convergence criteria satisfied after 12 iterations ***

         #    Occupation            Energy/Eh            Energy/eV
      -------------------------------------------------------------
         1        2.0000           -0.7488852             -20.3782
       ...           ...                  ...                  ...
        66        2.0000           -0.4015284             -10.9261
        67        2.0000           -0.4010567             -10.9133
        68        2.0000           -0.3972839             -10.8106
        69        2.0000           -0.3896530             -10.6030
        70        2.0000           -0.3804466             -10.3525
        71        2.0000           -0.3796843             -10.3317
        72        2.0000           -0.3343094              -9.0970 (HOMO)
        73                         -0.2527457              -6.8776 (LUMO)
        74                         -0.2204230              -5.9980
        75                         -0.2196397              -5.9767
        76                         -0.2194101              -5.9705
        77                         -0.2136789              -5.8145
       ...                                ...                  ...
       144                          1.1431820              31.1076
      -------------------------------------------------------------
                  HL-Gap            0.0815638 Eh            2.2195 eV
             Fermi-level           -0.2935276 Eh           -7.9873 eV

 SCC (total)                   0 d,  0 h,  0 min,  0.131 sec
 SCC setup                      ...        0 min,  0.001 sec (  0.555%)
 Dispersion                     ...        0 min,  0.001 sec (  0.725%)
 integral evaluation            ...        0 min,  0.051 sec ( 38.855%)
 zeroth order Hamiltonian       ...        0 min,  0.000 sec (  0.363%)
 iterations                     ...        0 min,  0.036 sec ( 27.302%)
 molecular gradient             ...        0 min,  0.042 sec ( 31.983%)
 printout                       ...        0 min,  0.000 sec (  0.189%)

         :::::::::::::::::::::::::::::::::::::::::::::::::::::
         ::                     SUMMARY                     ::
         :::::::::::::::::::::::::::::::::::::::::::::::::::::
         :: total energy             -78.070025738515 Eh    ::
         :: gradient norm              0.000424469933 Eh/a0 ::
         :: HOMO-LUMO gap              2.219463007607 eV    ::
         ::.................................................::
         :: SCC energy               -79.384655158552 Eh    ::
         :: -> isotropic ES            0.044687731134 Eh    ::
         :: -> anisotropic ES          0.009652150891 Eh    ::
         :: -> anisotropic XC          0.039250382072 Eh    ::
         :: -> dispersion             -0.067233352679 Eh    ::
         :: repulsion energy           1.314711273753 Eh    ::
         :: add. restraining           0.000000000000 Eh    ::
         :::::::::::::::::::::::::::::::::::::::::::::::::::::

           -------------------------------------------------
          |                Property Printout                |
           -------------------------------------------------

    * Orbital Energies and Occupations

         #    Occupation            Energy/Eh            Energy/eV
      -------------------------------------------------------------
         1        2.0000           -0.7488852             -20.3782
       ...           ...                  ...                  ...
        60        2.0000           -0.4253215             -11.5736
        61        2.0000           -0.4207559             -11.4494
        62        2.0000           -0.4171985             -11.3525
        63        2.0000           -0.4115080             -11.1977
        64        2.0000           -0.4060739             -11.0498
        65        2.0000           -0.4022148             -10.9448
        66        2.0000           -0.4015284             -10.9261
        67        2.0000           -0.4010567             -10.9133
        68        2.0000           -0.3972839             -10.8106
        69        2.0000           -0.3896530             -10.6030
        70        2.0000           -0.3804466             -10.3525
        71        2.0000           -0.3796843             -10.3317
        72        2.0000           -0.3343094              -9.0970 (HOMO)
        73                         -0.2527457              -6.8776 (LUMO)
        74                         -0.2204230              -5.9980
        75                         -0.2196397              -5.9767
        76                         -0.2194101              -5.9705
        77                         -0.2136789              -5.8145
        78                         -0.2073548              -5.6424
        79                         -0.1937928              -5.2734
        80                         -0.1663098              -4.5255
        81                         -0.1055738              -2.8728
        82                         -0.0987018              -2.6858
        83                         -0.0814867              -2.2174
       ...                                ...                  ...
       144                          1.1431820              31.1076
      -------------------------------------------------------------
                  HL-Gap            0.0815638 Eh            2.2195 eV
             Fermi-level           -0.2935276 Eh           -7.9873 eV

     #   Z        covCN         q      C6AA      α(0)
     1   6 C      3.757    -0.107    22.597     6.777
     2   6 C      2.966     0.011    27.756     8.642
     3   6 C      2.924    -0.041    29.024     8.835
     4   6 C      2.924    -0.039    28.977     8.828
     5   6 C      2.979     0.006    27.882     8.662
     6   6 C      2.962    -0.031    28.779     8.799
     7   6 C      3.065    -0.036    28.818     8.803
     8   6 C      2.902    -0.055    29.362     8.885
     9   6 C      3.064     0.017    27.566     8.610
    10   6 C      2.925    -0.036    28.901     8.816
    11   6 C      2.918    -0.029    28.723     8.789
    12   6 C      2.920    -0.035    28.872     8.811
    13   6 C      2.918    -0.032    28.786     8.798
    14   6 C      2.927    -0.041    29.026     8.835
    15  15 P      4.569     0.338   146.100    21.713
    16   8 O      1.659    -0.266    18.427     5.795
    17   6 C      3.965     0.077    19.237     6.232
    18   6 C      3.965     0.077    19.236     6.232
    19   8 O      1.659    -0.266    18.430     5.795
    20   6 C      2.902    -0.055    29.362     8.885
    21   6 C      3.063     0.017    27.566     8.610
    22   6 C      2.925    -0.036    28.901     8.816
    23   6 C      2.918    -0.029    28.723     8.789
    24   6 C      2.920    -0.035    28.872     8.811
    25   6 C      2.918    -0.032    28.786     8.798
    26   6 C      2.927    -0.041    29.027     8.835
    27   6 C      3.065    -0.036    28.819     8.803
    28   6 C      2.924    -0.039    28.977     8.828
    29   6 C      2.924    -0.041    29.024     8.835
    30   1 H      0.925     0.040     2.455     2.450
    31   1 H      0.924     0.044     2.402     2.424
    32   1 H      0.925     0.039     2.456     2.451
    33   1 H      0.925     0.025     2.663     2.552
    34   1 H      0.926     0.025     2.663     2.552
    35   1 H      0.925     0.043     2.409     2.427
    36   1 H      0.926     0.032     2.562     2.503
    37   1 H      0.926     0.029     2.594     2.519
    38   1 H      0.926     0.027     2.625     2.534
    39   1 H      0.926     0.024     2.679     2.560
    40   1 H      0.926     0.033     2.551     2.498
    41   1 H      0.924     0.054     2.265     2.354
    42   1 H      0.924     0.055     2.255     2.348
    43   1 H      0.924     0.055     2.255     2.348
    44   1 H      0.924     0.054     2.266     2.354
    45   1 H      0.926     0.032     2.562     2.503
    46   1 H      0.926     0.029     2.594     2.519
    47   1 H      0.926     0.027     2.625     2.534
    48   1 H      0.926     0.024     2.679     2.560
    49   1 H      0.926     0.033     2.550     2.497
    50   1 H      0.925     0.043     2.409     2.427
    51   1 H      0.926     0.025     2.663     2.552
    52   1 H      0.925     0.025     2.663     2.552

 Mol. C6AA /au·bohr⁶  :      37473.889499
 Mol. C8AA /au·bohr⁸  :     978258.635291
 Mol. α(0) /au        :        311.680674


Wiberg/Mayer (AO) data.
largest (>0.10) Wiberg bond orders for each atom
          total WBO             WBO to atom ...
     1  C   3.996        C    2 1.024    H   32 0.983    H   30 0.982    H   31 0.969
     2  C   3.980        C   29 1.405    C    3 1.405    C    1 1.024    C    5 0.101
     3  C   3.991        C    4 1.457    C    2 1.405    H   33 0.969    C   28 0.105
     4  C   3.985        C    3 1.457    C    5 1.384    H   34 0.968    C   29 0.105
     5  C   3.988        C   28 1.385    C    4 1.384    C    6 1.047    C    2 0.101
     6  C   3.967        C    7 1.365    C   27 1.364    C    5 1.047
     7  C   3.977        C    8 1.418    C    6 1.365    H   35 0.959
     8  C   3.943        C    7 1.418    P   15 1.135    C    9 1.068
     9  C   3.987        C   14 1.373    C   10 1.367    C    8 1.068
    10  C   3.989        C   11 1.462    C    9 1.367    H   36 0.968    C   13 0.106
    11  C   3.992        C   10 1.462    C   12 1.426    H   37 0.971    C   14 0.104
    12  C   3.970        C   13 1.433    C   11 1.426    H   38 0.972
    13  C   3.992        C   14 1.453    C   12 1.433    H   39 0.971    C   10 0.106
    14  C   3.983        C   13 1.453    C    9 1.373    H   40 0.956    C   11 0.104
    15  P   5.033        O   16 1.195    O   19 1.194    C    8 1.135    C   20 1.135
    16  O   2.350        P   15 1.195    C   17 0.964
    17  C   3.937        C   18 0.972    H   41 0.972    H   42 0.972    O   16 0.964
    18  C   3.937        C   17 0.972    H   44 0.972    H   43 0.972    O   19 0.964
    19  O   2.349        P   15 1.194    C   18 0.964
    20  C   3.943        C   27 1.418    P   15 1.135    C   21 1.068
    21  C   3.987        C   26 1.373    C   22 1.367    C   20 1.068
    22  C   3.989        C   23 1.461    C   21 1.367    H   45 0.968    C   25 0.106
    23  C   3.992        C   22 1.461    C   24 1.426    H   46 0.971    C   26 0.104
    24  C   3.970        C   25 1.433    C   23 1.426    H   47 0.972
    25  C   3.992        C   26 1.453    C   24 1.433    H   48 0.971    C   22 0.106
    26  C   3.983        C   25 1.453    C   21 1.373    H   49 0.956    C   23 0.104
    27  C   3.977        C   20 1.418    C    6 1.364    H   50 0.959
    28  C   3.985        C   29 1.457    C    5 1.385    H   51 0.968    C    3 0.105
    29  C   3.991        C   28 1.457    C    2 1.405    H   52 0.969    C    4 0.105
    30  H   0.998        C    1 0.982
    31  H   0.997        C    1 0.969
    32  H   0.998        C    1 0.983
    33  H   0.999        C    3 0.969
    34  H   0.999        C    4 0.968
    35  H   0.997        C    7 0.959
    36  H   0.999        C   10 0.968
    37  H   0.998        C   11 0.971
    38  H   0.999        C   12 0.972
    39  H   0.999        C   13 0.971
    40  H   0.999        C   14 0.956
    41  H   0.997        C   17 0.972
    42  H   0.996        C   17 0.972
    43  H   0.996        C   18 0.972
    44  H   0.997        C   18 0.972
    45  H   0.999        C   22 0.968
    46  H   0.998        C   23 0.971
    47  H   0.999        C   24 0.972
    48  H   0.999        C   25 0.971
    49  H   0.999        C   26 0.956
    50  H   0.997        C   27 0.959
    51  H   0.999        C   28 0.968
    52  H   0.999        C   29 0.969

molecular dipole:
                 x           y           z       tot (Debye)
 q only:        1.019       0.404      -0.025
   full:        1.163       0.456      -0.021       3.175
molecular quadrupole (traceless):
                xx          xy          yy          xz          yz          zz
 q only:       13.787       8.413      -3.305      -1.389       0.541     -10.482
  q+dip:       16.447       7.026       2.758      -2.677       2.355     -19.205
   full:       15.322       8.421      -1.452      -1.819       0.720     -13.870


           -------------------------------------------------
          | TOTAL ENERGY              -78.070025738515 Eh   |
          | GRADIENT NORM               0.000424469933 Eh/α |
          | HOMO-LUMO GAP               2.219463007607 eV   |
           -------------------------------------------------

------------------------------------------------------------------------
 * finished run on 2026/01/19 at 14:12:49.262     
------------------------------------------------------------------------
 total:
 * wall-time:     0 d,  0 h,  0 min,  0.577 sec
 *  cpu-time:     0 d,  0 h,  0 min,  0.216 sec
 * ratio c/w:     0.374 speedup
 SCF:
 * wall-time:     0 d,  0 h,  0 min,  0.131 sec
 *  cpu-time:     0 d,  0 h,  0 min,  0.131 sec
 * ratio c/w:     1.000 speedup


-------------------------   --------------------
FINAL SINGLE POINT ENERGY         0.000000000000
-------------------------   --------------------

                                *** OPTIMIZATION RUN DONE ***

Timings for individual modules:

Sum of individual times         ...       21.767 sec (=   0.363 min)
Geometry relaxation             ...       10.458 sec (=   0.174 min)  48.0 %
XTB module                      ...       11.309 sec (=   0.188 min)  52.0 %
                             ****ORCA TERMINATED NORMALLY****
TOTAL RUN TIME: 0 days 0 hours 0 minutes 31 seconds 993 msec
