 Entering Gaussian System, Link 0=g16
 Initial command:
 /appl/Gaussian16/AVX_revB01/g16/l1.exe "/home/junhkim/WORK/Review_DD/TADF-Design/data/td_dft/results/mol_1117/Gau-2711690.inp" -scrdir="/home/junhkim/WORK/Review_DD/TADF-Design/data/td_dft/results/mol_1117/"
 Entering Link 1 = /appl/Gaussian16/AVX_revB01/g16/l1.exe PID=   2711692.
  
 Copyright (c) 1988-2017, Gaussian, Inc.  All Rights Reserved.
  
 This is part of the Gaussian(R) 16 program.  It is based on
 the Gaussian(R) 09 system (copyright 2009, Gaussian, Inc.),
 the Gaussian(R) 03 system (copyright 2003, Gaussian, Inc.),
 the Gaussian(R) 98 system (copyright 1998, Gaussian, Inc.),
 the Gaussian(R) 94 system (copyright 1995, Gaussian, Inc.),
 the Gaussian 92(TM) system (copyright 1992, Gaussian, Inc.),
 the Gaussian 90(TM) system (copyright 1990, Gaussian, Inc.),
 the Gaussian 88(TM) system (copyright 1988, Gaussian, Inc.),
 the Gaussian 86(TM) system (copyright 1986, Carnegie Mellon
 University), and the Gaussian 82(TM) system (copyright 1983,
 Carnegie Mellon University). Gaussian is a federally registered
 trademark of Gaussian, Inc.
  
 This software contains proprietary and confidential information,
 including trade secrets, belonging to Gaussian, Inc.
  
 This software is provided under written license and may be
 used, copied, transmitted, or stored only in accord with that
 written license.
  
 The following legend is applicable only to US Government
 contracts under FAR:
  
                    RESTRICTED RIGHTS LEGEND
  
 Use, reproduction and disclosure by the US Government is
 subject to restrictions as set forth in subparagraphs (a)
 and (c) of the Commercial Computer Software - Restricted
 Rights clause in FAR 52.227-19.
  
 Gaussian, Inc.
 340 Quinnipiac St., Bldg. 40, Wallingford CT 06492
  
  
 ---------------------------------------------------------------
 Warning -- This program may not be used in any manner that
 competes with the business of Gaussian, Inc. or will provide
 assistance to any competitor of Gaussian, Inc.  The licensee
 of this program is prohibited from giving any competitor of
 Gaussian, Inc. access to this program.  By using this program,
 the user acknowledges that Gaussian, Inc. is engaged in the
 business of creating and licensing software in the field of
 computational chemistry and represents and warrants to the
 licensee that it is not a competitor of Gaussian, Inc. and that
 it will not use this program in any manner prohibited above.
 ---------------------------------------------------------------
  

 Cite this work as:
 Gaussian 16, Revision B.01,
 M. J. Frisch, G. W. Trucks, H. B. Schlegel, G. E. Scuseria, 
 M. A. Robb, J. R. Cheeseman, G. Scalmani, V. Barone, 
 G. A. Petersson, H. Nakatsuji, X. Li, M. Caricato, A. V. Marenich, 
 J. Bloino, B. G. Janesko, R. Gomperts, B. Mennucci, H. P. Hratchian, 
 J. V. Ortiz, A. F. Izmaylov, J. L. Sonnenberg, D. Williams-Young, 
 F. Ding, F. Lipparini, F. Egidi, J. Goings, B. Peng, A. Petrone, 
 T. Henderson, D. Ranasinghe, V. G. Zakrzewski, J. Gao, N. Rega, 
 G. Zheng, W. Liang, M. Hada, M. Ehara, K. Toyota, R. Fukuda, 
 J. Hasegawa, M. Ishida, T. Nakajima, Y. Honda, O. Kitao, H. Nakai, 
 T. Vreven, K. Throssell, J. A. Montgomery, Jr., J. E. Peralta, 
 F. Ogliaro, M. J. Bearpark, J. J. Heyd, E. N. Brothers, K. N. Kudin, 
 V. N. Staroverov, T. A. Keith, R. Kobayashi, J. Normand, 
 K. Raghavachari, A. P. Rendell, J. C. Burant, S. S. Iyengar, 
 J. Tomasi, M. Cossi, J. M. Millam, M. Klene, C. Adamo, R. Cammi, 
 J. W. Ochterski, R. L. Martin, K. Morokuma, O. Farkas, 
 J. B. Foresman, and D. J. Fox, Gaussian, Inc., Wallingford CT, 2016.
 
 ******************************************
 Gaussian 16:  ES64L-G16RevB.01 20-Dec-2017
                19-Jan-2026 
 ******************************************
 %OldChk=/home/junhkim/WORK/Review_DD/TADF-Design/data/td_dft/results/mol_1117/op
 t.chk
 %nprocshared=16
 Will use up to   16 processors via shared memory.
 %mem=60GB
 Copying data from "/home/junhkim/WORK/Review_DD/TADF-Design/data/td_dft/results/mol_1117/opt.chk" to current chk file "/home/junhkim/WORK/Review_DD/TADF-Design/data/td_dft/results/mol_1117/Gau-2711692.chk"
 IOpt=  2 FromEx=T IUOpen= 4 IOptOp= 5 NList=   0 IFRang= 0 IUIn= 4 IUOut= 2.
 -----------------------------------------------------------------
 # b3lyp/6-31g* TD=(Nstates=1,50-50) Geom=Check Guess=Read SCF=XQC
 -----------------------------------------------------------------
 1/29=2,38=1,172=1/1;
 2/12=2,40=1/2;
 3/5=1,6=6,7=1,11=9,14=-4,25=1,30=1,74=-5,116=-2/1,2,3,8;
 4/5=1/1;
 5/5=2,8=3,13=1,38=6/2,8;
 8/6=1,10=2,108=1/1;
 9/41=1,42=1,48=2,70=2/14;
 6/7=2,8=2,9=2,10=2/1;
 99/5=1,9=1/99;
 ------------------
 TD-DFT calculation
 ------------------
 Structure from the checkpoint file:  "/home/junhkim/WORK/Review_DD/TADF-Design/data/td_dft/results/mol_1117/Gau-2711692.chk"
 Charge =  0 Multiplicity = 1
 Redundant internal coordinates found in file.  (old form).
 C,0,-6.6947344313,-2.7057491337,0.2453270408
 C,0,-5.3000269775,-2.1292794019,0.1724132877
 C,0,-4.2479623633,-2.8446402471,-0.4132176632
 C,0,-2.9561462404,-2.3251979127,-0.4600135217
 C,0,-2.6543999375,-1.065748162,0.0863688983
 C,0,-1.2762669347,-0.5113043184,0.0400111307
 C,0,-1.0792659824,0.8567300453,-0.2069273228
 C,0,0.1412421347,1.5362305355,-0.2961282512
 C,0,0.183095851,3.0073258367,-0.5195680461
 C,0,-0.6499528316,3.8543530565,0.2342732502
 C,0,-0.6487187335,5.2329340527,0.0295208539
 C,0,0.19693899,5.8025633626,-0.9246351784
 C,0,1.0338614253,4.9769400745,-1.6765885382
 C,0,1.0252056727,3.5951463969,-1.4817415293
 P,0,1.5999308542,0.6445187309,-0.055248274
 O,0,2.7086887773,0.8420039533,-1.2761601979
 C,0,4.0127878794,1.2040181462,-0.7965245383
 C,0,3.7668307778,1.9252348423,0.5353898505
 O,0,2.6042491699,1.2961651448,1.0961543378
 C,0,1.1794491329,-1.0024677617,0.2474891896
 C,0,2.2393334813,-2.0308757646,0.434069592
 C,0,2.1817631374,-3.2356074161,-0.2905055918
 C,0,3.1473822645,-4.2256988169,-0.1181451535
 C,0,4.2048362011,-4.030793094,0.7728271249
 C,0,4.2798863025,-2.8388842706,1.4948023871
 C,0,3.3072625835,-1.851380695,1.3328277438
 C,0,-0.1744967874,-1.3574913627,0.2435937388
 C,0,-3.7125805015,-0.351622872,0.674365094
 C,0,-5.0053448895,-0.8697870717,0.7092464199
 H,0,-6.8949395419,-3.3789089752,-0.5955136163
 H,0,-6.8416870958,-3.2862382714,1.166518895
 H,0,-7.4560597691,-1.9180654508,0.2351737712
 H,0,-4.4454869267,-3.8193934692,-0.8550139754
 H,0,-2.1732788388,-2.8936328175,-0.9553576201
 H,0,-1.9647811405,1.4632125072,-0.3876915385
 H,0,-1.2895939294,3.4218791413,0.9986202286
 H,0,-1.3017639697,5.8649179819,0.6260145465
 H,0,0.2014681006,6.8778647875,-1.0813487042
 H,0,1.6866474126,5.4070184277,-2.4322454462
 H,0,1.6520241607,2.9587696043,-2.0980904029
 H,0,4.6066473049,0.293467144,-0.6598486095
 H,0,4.4896811287,1.8445261002,-1.5430205144
 H,0,4.5953844998,1.8092124079,1.2389340469
 H,0,3.5575465225,2.9903004964,0.3860945542
 H,0,1.3783748926,-3.3828314574,-1.0069490086
 H,0,3.0798026771,-5.1471128043,-0.6909498933
 H,0,4.9604301303,-4.800667688,0.9040665514
 H,0,5.090600446,-2.6810370445,2.2018678292
 H,0,3.354045334,-0.9444727336,1.9270448184
 H,0,-0.3828787387,-2.4035850113,0.4602418249
 H,0,-3.5161481547,0.6154832502,1.1298971113
 H,0,-5.7988865297,-0.2883430022,1.1745990183
 Recover connectivity data from disk.
                           ----------------------------
                           !    Current Parameters    !
                           ! (Angstroms and Degrees)  !
 --------------------------                            --------------------------
 ! Name  Definition              Value                                          !
 --------------------------------------------------------------------------------
 ! R1    R(1,2)                  1.5109                                         !
 ! R2    R(1,30)                 1.0956                                         !
 ! R3    R(1,31)                 1.0987                                         !
 ! R4    R(1,32)                 1.0955                                         !
 ! R5    R(2,3)                  1.4006                                         !
 ! R6    R(2,29)                 1.4005                                         !
 ! R7    R(3,4)                  1.3931                                         !
 ! R8    R(3,33)                 1.0883                                         !
 ! R9    R(4,5)                  1.4056                                         !
 ! R10   R(4,34)                 1.0869                                         !
 ! R11   R(5,6)                  1.4862                                         !
 ! R12   R(5,28)                 1.4055                                         !
 ! R13   R(6,7)                  1.404                                          !
 ! R14   R(6,27)                 1.4041                                         !
 ! R15   R(7,8)                  1.3998                                         !
 ! R16   R(7,35)                 1.0884                                         !
 ! R17   R(8,9)                  1.4886                                         !
 ! R18   R(8,15)                 1.7265                                         !
 ! R19   R(9,10)                 1.407                                          !
 ! R20   R(9,14)                 1.4073                                         !
 ! R21   R(10,11)                1.3937                                         !
 ! R22   R(10,36)                1.0865                                         !
 ! R23   R(11,12)                1.3964                                         !
 ! R24   R(11,37)                1.087                                          !
 ! R25   R(12,13)                1.3955                                         !
 ! R26   R(12,38)                1.0867                                         !
 ! R27   R(13,14)                1.3955                                         !
 ! R28   R(13,39)                1.0873                                         !
 ! R29   R(14,40)                1.0852                                         !
 ! R30   R(15,16)                1.661                                          !
 ! R31   R(15,19)                1.661                                          !
 ! R32   R(15,20)                1.7266                                         !
 ! R33   R(16,17)                1.4359                                         !
 ! R34   R(17,18)                1.5345                                         !
 ! R35   R(17,41)                1.0957                                         !
 ! R36   R(17,42)                1.0931                                         !
 ! R37   R(18,19)                1.4359                                         !
 ! R38   R(18,43)                1.0931                                         !
 ! R39   R(18,44)                1.0957                                         !
 ! R40   R(20,21)                1.4886                                         !
 ! R41   R(20,27)                1.3997                                         !
 ! R42   R(21,22)                1.407                                          !
 ! R43   R(21,26)                1.4073                                         !
 ! R44   R(22,23)                1.3937                                         !
 ! R45   R(22,45)                1.0865                                         !
 ! R46   R(23,24)                1.3964                                         !
 ! R47   R(23,46)                1.087                                          !
 ! R48   R(24,25)                1.3955                                         !
 ! R49   R(24,47)                1.0867                                         !
 ! R50   R(25,26)                1.3955                                         !
 ! R51   R(25,48)                1.0873                                         !
 ! R52   R(26,49)                1.0852                                         !
 ! R53   R(27,50)                1.0884                                         !
 ! R54   R(28,29)                1.3932                                         !
 ! R55   R(28,51)                1.0869                                         !
 ! R56   R(29,52)                1.0883                                         !
 ! A1    A(2,1,30)             111.4744                                         !
 ! A2    A(2,1,31)             111.4388                                         !
 ! A3    A(2,1,32)             111.5136                                         !
 ! A4    A(30,1,31)            107.1228                                         !
 ! A5    A(30,1,32)            107.9195                                         !
 ! A6    A(31,1,32)            107.1395                                         !
 ! A7    A(1,2,3)              121.2456                                         !
 ! A8    A(1,2,29)             121.256                                          !
 ! A9    A(3,2,29)             117.4887                                         !
 ! A10   A(2,3,4)              121.3424                                         !
 ! A11   A(2,3,33)             119.3997                                         !
 ! A12   A(4,3,33)             119.2508                                         !
 ! A13   A(3,4,5)              121.338                                          !
 ! A14   A(3,4,34)             119.2224                                         !
 ! A15   A(5,4,34)             119.4145                                         !
 ! A16   A(4,5,6)              121.4126                                         !
 ! A17   A(4,5,28)             117.1452                                         !
 ! A18   A(6,5,28)             121.4419                                         !
 ! A19   A(5,6,7)              119.9397                                         !
 ! A20   A(5,6,27)             119.8868                                         !
 ! A21   A(7,6,27)             120.1735                                         !
 ! A22   A(6,7,8)              127.3402                                         !
 ! A23   A(6,7,35)             117.2573                                         !
 ! A24   A(8,7,35)             115.361                                          !
 ! A25   A(7,8,9)              120.9193                                         !
 ! A26   A(7,8,15)             118.4938                                         !
 ! A27   A(9,8,15)             120.5042                                         !
 ! A28   A(8,9,10)             119.8592                                         !
 ! A29   A(8,9,14)             122.1577                                         !
 ! A30   A(10,9,14)            117.9788                                         !
 ! A31   A(9,10,11)            121.0799                                         !
 ! A32   A(9,10,36)            119.0693                                         !
 ! A33   A(11,10,36)           119.8423                                         !
 ! A34   A(10,11,12)           120.2922                                         !
 ! A35   A(10,11,37)           119.5986                                         !
 ! A36   A(12,11,37)           120.105                                          !
 ! A37   A(11,12,13)           119.3416                                         !
 ! A38   A(11,12,38)           120.3122                                         !
 ! A39   A(13,12,38)           120.346                                          !
 ! A40   A(12,13,14)           120.4546                                         !
 ! A41   A(12,13,39)           120.0356                                         !
 ! A42   A(14,13,39)           119.5017                                         !
 ! A43   A(9,14,13)            120.8487                                         !
 ! A44   A(9,14,40)            119.2741                                         !
 ! A45   A(13,14,40)           119.8514                                         !
 ! A46   A(8,15,16)            113.5785                                         !
 ! A47   A(8,15,19)            113.8864                                         !
 ! A48   A(8,15,20)            108.1422                                         !
 ! A49   A(16,15,19)            93.3979                                         !
 ! A50   A(16,15,20)           113.8825                                         !
 ! A51   A(19,15,20)           113.5744                                         !
 ! A52   A(15,16,17)           112.998                                          !
 ! A53   A(16,17,18)           105.2398                                         !
 ! A54   A(16,17,41)           108.9299                                         !
 ! A55   A(16,17,42)           108.4114                                         !
 ! A56   A(18,17,41)           111.6665                                         !
 ! A57   A(18,17,42)           112.7853                                         !
 ! A58   A(41,17,42)           109.6136                                         !
 ! A59   A(17,18,19)           105.2389                                         !
 ! A60   A(17,18,43)           112.7844                                         !
 ! A61   A(17,18,44)           111.668                                          !
 ! A62   A(19,18,43)           108.4117                                         !
 ! A63   A(19,18,44)           108.9312                                         !
 ! A64   A(43,18,44)           109.6123                                         !
 ! A65   A(15,19,18)           112.9987                                         !
 ! A66   A(15,20,21)           120.5047                                         !
 ! A67   A(15,20,27)           118.4918                                         !
 ! A68   A(21,20,27)           120.9208                                         !
 ! A69   A(20,21,22)           119.8591                                         !
 ! A70   A(20,21,26)           122.1579                                         !
 ! A71   A(22,21,26)           117.9787                                         !
 ! A72   A(21,22,23)           121.0799                                         !
 ! A73   A(21,22,45)           119.0694                                         !
 ! A74   A(23,22,45)           119.8422                                         !
 ! A75   A(22,23,24)           120.2922                                         !
 ! A76   A(22,23,46)           119.5985                                         !
 ! A77   A(24,23,46)           120.105                                          !
 ! A78   A(23,24,25)           119.3416                                         !
 ! A79   A(23,24,47)           120.3123                                         !
 ! A80   A(25,24,47)           120.346                                          !
 ! A81   A(24,25,26)           120.4544                                         !
 ! A82   A(24,25,48)           120.0356                                         !
 ! A83   A(26,25,48)           119.5018                                         !
 ! A84   A(21,26,25)           120.8489                                         !
 ! A85   A(21,26,49)           119.2738                                         !
 ! A86   A(25,26,49)           119.8515                                         !
 ! A87   A(6,27,20)            127.3429                                         !
 ! A88   A(6,27,50)            117.2491                                         !
 ! A89   A(20,27,50)           115.3667                                         !
 ! A90   A(5,28,29)            121.34                                           !
 ! A91   A(5,28,51)            119.4295                                         !
 ! A92   A(29,28,51)           119.2182                                         !
 ! A93   A(2,29,28)            121.3415                                         !
 ! A94   A(2,29,52)            119.4047                                         !
 ! A95   A(28,29,52)           119.2493                                         !
 ! D1    D(30,1,2,3)           -30.2333                                         !
 ! D2    D(30,1,2,29)          150.9287                                         !
 ! D3    D(31,1,2,3)            89.3955                                         !
 ! D4    D(31,1,2,29)          -89.4424                                         !
 ! D5    D(32,1,2,3)          -150.928                                          !
 ! D6    D(32,1,2,29)           30.2341                                         !
 ! D7    D(1,2,3,4)           -178.8288                                         !
 ! D8    D(1,2,3,33)             2.1492                                         !
 ! D9    D(29,2,3,4)             0.0514                                         !
 ! D10   D(29,2,3,33)         -178.9706                                         !
 ! D11   D(1,2,29,28)          178.2869                                         !
 ! D12   D(1,2,29,52)           -0.9318                                         !
 ! D13   D(3,2,29,28)           -0.5932                                         !
 ! D14   D(3,2,29,52)         -179.8118                                         !
 ! D15   D(2,3,4,5)              0.4182                                         !
 ! D16   D(2,3,4,34)          -177.7505                                         !
 ! D17   D(33,3,4,5)           179.4416                                         !
 ! D18   D(33,3,4,34)            1.2729                                         !
 ! D19   D(3,4,5,6)            179.8641                                         !
 ! D20   D(3,4,5,28)            -0.3377                                         !
 ! D21   D(34,4,5,6)            -1.9707                                         !
 ! D22   D(34,4,5,28)          177.8275                                         !
 ! D23   D(4,5,6,7)            140.991                                          !
 ! D24   D(4,5,6,27)           -39.0186                                         !
 ! D25   D(28,5,6,7)           -38.7985                                         !
 ! D26   D(28,5,6,27)          141.1919                                         !
 ! D27   D(4,5,28,29)           -0.2031                                         !
 ! D28   D(4,5,28,51)          178.5078                                         !
 ! D29   D(6,5,28,29)          179.595                                          !
 ! D30   D(6,5,28,51)           -1.6942                                         !
 ! D31   D(5,6,7,8)           -179.3425                                         !
 ! D32   D(5,6,7,35)            -1.8054                                         !
 ! D33   D(27,6,7,8)             0.6672                                         !
 ! D34   D(27,6,7,35)          178.2042                                         !
 ! D35   D(5,6,27,20)         -179.29                                           !
 ! D36   D(5,6,27,50)           -1.7483                                         !
 ! D37   D(7,6,27,20)            0.7003                                         !
 ! D38   D(7,6,27,50)          178.2421                                         !
 ! D39   D(6,7,8,9)           -177.9194                                         !
 ! D40   D(6,7,8,15)            -1.2111                                         !
 ! D41   D(35,7,8,9)             4.5035                                         !
 ! D42   D(35,7,8,15)         -178.7881                                         !
 ! D43   D(7,8,9,10)            46.305                                          !
 ! D44   D(7,8,9,14)          -132.9238                                         !
 ! D45   D(15,8,9,10)         -130.3373                                         !
 ! D46   D(15,8,9,14)           50.4339                                         !
 ! D47   D(7,8,15,16)          127.987                                          !
 ! D48   D(7,8,15,19)         -126.7051                                         !
 ! D49   D(7,8,15,20)            0.5521                                         !
 ! D50   D(9,8,15,16)          -55.2905                                         !
 ! D51   D(9,8,15,19)           50.0174                                         !
 ! D52   D(9,8,15,20)          177.2746                                         !
 ! D53   D(8,9,10,11)         -178.8511                                         !
 ! D54   D(8,9,10,36)            2.211                                          !
 ! D55   D(14,9,10,11)           0.4096                                         !
 ! D56   D(14,9,10,36)        -178.5283                                         !
 ! D57   D(8,9,14,13)          179.4305                                         !
 ! D58   D(8,9,14,40)            1.2832                                         !
 ! D59   D(10,9,14,13)           0.1878                                         !
 ! D60   D(10,9,14,40)        -177.9595                                         !
 ! D61   D(9,10,11,12)          -0.7174                                         !
 ! D62   D(9,10,11,37)        -179.9662                                         !
 ! D63   D(36,10,11,12)        178.2124                                         !
 ! D64   D(36,10,11,37)         -1.0364                                         !
 ! D65   D(10,11,12,13)          0.4156                                         !
 ! D66   D(10,11,12,38)       -179.7178                                         !
 ! D67   D(37,11,12,13)        179.6606                                         !
 ! D68   D(37,11,12,38)         -0.4728                                         !
 ! D69   D(11,12,13,14)          0.1782                                         !
 ! D70   D(11,12,13,39)        179.1389                                         !
 ! D71   D(38,12,13,14)       -179.6883                                         !
 ! D72   D(38,12,13,39)         -0.7276                                         !
 ! D73   D(12,13,14,9)          -0.4829                                         !
 ! D74   D(12,13,14,40)        177.6538                                         !
 ! D75   D(39,13,14,9)        -179.4491                                         !
 ! D76   D(39,13,14,40)         -1.3125                                         !
 ! D77   D(8,15,16,17)         128.6939                                         !
 ! D78   D(19,15,16,17)         10.7569                                         !
 ! D79   D(20,15,16,17)       -106.9177                                         !
 ! D80   D(8,15,19,18)        -106.9293                                         !
 ! D81   D(16,15,19,18)         10.7511                                         !
 ! D82   D(20,15,19,18)        128.6826                                         !
 ! D83   D(8,15,20,21)         177.2476                                         !
 ! D84   D(8,15,20,27)           0.5247                                         !
 ! D85   D(16,15,20,21)         49.9878                                         !
 ! D86   D(16,15,20,27)       -126.735                                          !
 ! D87   D(19,15,20,21)        -55.3156                                         !
 ! D88   D(19,15,20,27)        127.9616                                         !
 ! D89   D(15,16,17,18)        -26.9328                                         !
 ! D90   D(15,16,17,41)         92.9333                                         !
 ! D91   D(15,16,17,42)       -147.846                                          !
 ! D92   D(16,17,18,19)         32.5779                                         !
 ! D93   D(16,17,18,43)        150.579                                          !
 ! D94   D(16,17,18,44)        -85.4602                                         !
 ! D95   D(41,17,18,19)        -85.4582                                         !
 ! D96   D(41,17,18,43)         32.5428                                         !
 ! D97   D(41,17,18,44)        156.5037                                         !
 ! D98   D(42,17,18,19)        150.5796                                         !
 ! D99   D(42,17,18,43)        -91.4193                                         !
 ! D100  D(42,17,18,44)         32.5415                                         !
 ! D101  D(17,18,19,15)        -26.9284                                         !
 ! D102  D(43,18,19,15)       -147.8401                                         !
 ! D103  D(44,18,19,15)         92.9397                                         !
 ! D104  D(15,20,21,22)       -130.3425                                         !
 ! D105  D(15,20,21,26)         50.4272                                         !
 ! D106  D(27,20,21,22)         46.3                                            !
 ! D107  D(27,20,21,26)       -132.9303                                         !
 ! D108  D(15,20,27,6)          -1.2116                                         !
 ! D109  D(15,20,27,50)       -178.7929                                         !
 ! D110  D(21,20,27,6)        -177.9202                                         !
 ! D111  D(21,20,27,50)          4.4984                                         !
 ! D112  D(20,21,22,23)       -178.8525                                         !
 ! D113  D(20,21,22,45)          2.2098                                         !
 ! D114  D(26,21,22,23)          0.4096                                         !
 ! D115  D(26,21,22,45)       -178.5281                                         !
 ! D116  D(20,21,26,25)        179.4321                                         !
 ! D117  D(20,21,26,49)          1.2851                                         !
 ! D118  D(22,21,26,25)          0.188                                          !
 ! D119  D(22,21,26,49)       -177.959                                          !
 ! D120  D(21,22,23,24)         -0.7176                                         !
 ! D121  D(21,22,23,46)       -179.9657                                         !
 ! D122  D(45,22,23,24)        178.2119                                         !
 ! D123  D(45,22,23,46)         -1.0362                                         !
 ! D124  D(22,23,24,25)          0.4159                                         !
 ! D125  D(22,23,24,47)       -179.717                                          !
 ! D126  D(46,23,24,25)        179.6602                                         !
 ! D127  D(46,23,24,47)         -0.4726                                         !
 ! D128  D(23,24,25,26)          0.1782                                         !
 ! D129  D(23,24,25,48)        179.1394                                         !
 ! D130  D(47,24,25,26)       -179.6889                                         !
 ! D131  D(47,24,25,48)         -0.7278                                         !
 ! D132  D(24,25,26,21)         -0.4831                                         !
 ! D133  D(24,25,26,49)        177.6533                                         !
 ! D134  D(48,25,26,21)       -179.4498                                         !
 ! D135  D(48,25,26,49)         -1.3134                                         !
 ! D136  D(5,28,29,2)            0.6824                                         !
 ! D137  D(5,28,29,52)         179.9022                                         !
 ! D138  D(51,28,29,2)        -178.0311                                         !
 ! D139  D(51,28,29,52)          1.1887                                         !
 --------------------------------------------------------------------------------
 Stoichiometry    C26H23O2P
 Framework group  C1[X(C26H23O2P)]
 Deg. of freedom   150
 Full point group                 C1      NOp   1
 Largest Abelian subgroup         C1      NOp   1
 Largest concise Abelian subgroup C1      NOp   1
                         Standard orientation:                         
 ---------------------------------------------------------------------
 Center     Atomic      Atomic             Coordinates (Angstroms)
 Number     Number       Type             X           Y           Z
 ---------------------------------------------------------------------
      1          6           0       -7.441414   -0.001115   -0.017144
      2          6           0       -5.930752   -0.015373    0.006091
      3          6           0       -5.205636    0.960629    0.701198
      4          6           0       -3.812517    0.963412    0.704078
      5          6           0       -3.078073   -0.008146    0.002319
      6          6           0       -1.591870   -0.004985    0.001819
      7          6           0       -0.888528   -1.218233    0.069955
      8          6           0        0.499891   -1.394609    0.092373
      9          6           0        1.097388   -2.757692    0.120626
     10          6           0        0.619211   -3.750429   -0.754315
     11          6           0        1.143790   -5.041467   -0.733168
     12          6           0        2.171221   -5.369858    0.153721
     13          6           0        2.660953   -4.395062    1.024043
     14          6           0        2.128609   -3.105147    1.012994
     15         15           0        1.509330    0.003013   -0.000529
     16          8           0        2.649463    0.080454    1.204905
     17          6           0        3.978191    0.300452    0.707049
     18          6           0        3.978391   -0.281375   -0.712853
     19          8           0        2.647554   -0.068467   -1.208156
     20          6           0        0.492562    1.395466   -0.091505
     21          6           0        1.082982    2.761616   -0.120284
     22          6           0        0.600950    3.751665    0.755588
     23          6           0        1.118854    5.045388    0.734024
     24          6           0        2.143326    5.379277   -0.154234
     25          6           0        2.636828    4.407227   -1.025500
     26          6           0        2.111134    3.114591   -1.014024
     27          6           0       -0.894857    1.211900   -0.067031
     28          6           0       -3.809393   -0.985006   -0.695088
     29          6           0       -5.202533   -0.990861   -0.686346
     30          1           0       -7.852576    0.432505    0.901093
     31          1           0       -7.824524    0.595560   -0.856407
     32          1           0       -7.851096   -1.011333   -0.125693
     33          1           0       -5.740093    1.723652    1.263777
     34          1           0       -3.284589    1.715110    1.285117
     35          1           0       -1.475790   -2.130937    0.151986
     36          1           0       -0.159883   -3.495037   -1.467189
     37          1           0        0.756754   -5.789597   -1.420323
     38          1           0        2.583605   -6.375148    0.167317
     39          1           0        3.451051   -4.642191    1.728875
     40          1           0        2.490330   -2.365413    1.719898
     41          1           0        4.182623    1.376856    0.703167
     42          1           0        4.683938   -0.204686    1.371646
     43          1           0        4.680161    0.227539   -1.378783
     44          1           0        4.188605   -1.356667   -0.709398
     45          1           0       -0.175804    3.492096    1.469504
     46          1           0        0.728957    5.791345    1.421923
     47          1           0        2.550525    6.386673   -0.168150
     48          1           0        3.424650    4.658587   -1.731381
     49          1           0        2.475643    2.376900   -1.721633
     50          1           0       -1.487063    2.121535   -0.147824
     51          1           0       -3.279252   -1.739645   -1.270292
     52          1           0       -5.734519   -1.762390   -1.239584
 ---------------------------------------------------------------------
 Rotational constants (GHZ):           0.1630221           0.1267716           0.0754225
 Standard basis: 6-31G(d) (6D, 7F)
 There are   485 symmetry adapted cartesian basis functions of A   symmetry.
 There are   485 symmetry adapted basis functions of A   symmetry.
   485 basis functions,   928 primitive gaussians,   485 cartesian basis functions
   105 alpha electrons      105 beta electrons
       nuclear repulsion energy      2766.4552293472 Hartrees.
 NAtoms=   52 NActive=   52 NUniq=   52 SFac= 1.00D+00 NAtFMM=   60 NAOKFM=F Big=F
 Integral buffers will be    131072 words long.
 Regular integral format.
 Two-electron integral symmetry is turned on.
 One-electron integrals computed using PRISM.
 NBasis=   485 RedAO= T EigKep=  4.09D-04  NBF=   485
 NBsUse=   485 1.00D-06 EigRej= -1.00D+00 NBFU=   485
 Initial guess from the checkpoint file:  "/home/junhkim/WORK/Review_DD/TADF-Design/data/td_dft/results/mol_1117/Gau-2711692.chk"
 B after Tr=    -0.000000    0.000000   -0.000000
         Rot=    1.000000    0.000000    0.000000    0.000000 Ang=   0.00 deg.
 Requested convergence on RMS density matrix=1.00D-08 within  32 cycles.
 Requested convergence on MAX density matrix=1.00D-06.
 Requested convergence on             energy=1.00D-06.
 No special actions if energy rises.
 SCF Done:  E(RB3LYP) =  -1496.42943335     A.U. after    1 cycles
            NFock=  1  Conv=0.48D-08     -V/T= 2.0084
 QCSCF skips out because SCF is already converged.
 DoSCS=F DFT=T ScalE2(SS,OS)=  1.000000  1.000000
 ExpMin= 9.98D-02 ExpMax= 1.94D+04 ExpMxC= 2.91D+03 IAcc=3 IRadAn=         5 AccDes= 0.00D+00
 HarFok:  IExCor=  205 AccDes= 0.00D+00 IRadAn=         5 IDoV=-2 UseB2=F ITyADJ=14
 ICtDFT= 12500011 ScaDFX=  1.000000  1.000000  1.000000  1.000000
 GSVD:  LWork=       -1353 too small for GESVD, short by        5940 words or        5940 for optimal perf.
 Range of M.O.s used for correlation:    34   485
 NBasis=   485 NAE=   105 NBE=   105 NFC=    33 NFV=     0
 NROrb=    452 NOA=    72 NOB=    72 NVA=   380 NVB=   380
 Orbital symmetries:
       Occupied  (A) (A) (A) (A) (A) (A) (A) (A) (A) (A) (A) (A)
                 (A) (A) (A) (A) (A) (A) (A) (A) (A) (A) (A) (A)
                 (A) (A) (A) (A) (A) (A) (A) (A) (A) (A) (A) (A)
                 (A) (A) (A) (A) (A) (A) (A) (A) (A) (A) (A) (A)
                 (A) (A) (A) (A) (A) (A) (A) (A) (A) (A) (A) (A)
                 (A) (A) (A) (A) (A) (A) (A) (A) (A) (A) (A) (A)
                 (A) (A) (A) (A) (A) (A) (A) (A) (A) (A) (A) (A)
                 (A) (A) (A) (A) (A) (A) (A) (A) (A) (A) (A) (A)
                 (A) (A) (A) (A) (A) (A) (A) (A) (A)
       Virtual   (A) (A) (A) (A) (A) (A) (A) (A) (A) (A) (A) (A)
                 (A) (A) (A) (A) (A) (A) (A) (A) (A) (A) (A) (A)
                 (A) (A) (A) (A) (A) (A) (A) (A) (A) (A) (A) (A)
                 (A) (A) (A) (A) (A) (A) (A) (A) (A) (A) (A) (A)
                 (A) (A) (A) (A) (A) (A) (A) (A) (A) (A) (A) (A)
                 (A) (A) (A) (A) (A) (A) (A) (A) (A) (A) (A) (A)
                 (A) (A) (A) (A) (A) (A) (A) (A) (A) (A) (A) (A)
                 (A) (A) (A) (A) (A) (A) (A) (A) (A) (A) (A) (A)
                 (A) (A) (A) (A) (A) (A) (A) (A) (A) (A) (A) (A)
                 (A) (A) (A) (A) (A) (A) (A) (A) (A) (A) (A) (A)
                 (A) (A) (A) (A) (A) (A) (A) (A) (A) (A) (A) (A)
                 (A) (A) (A) (A) (A) (A) (A) (A) (A) (A) (A) (A)
                 (A) (A) (A) (A) (A) (A) (A) (A) (A) (A) (A) (A)
                 (A) (A) (A) (A) (A) (A) (A) (A) (A) (A) (A) (A)
                 (A) (A) (A) (A) (A) (A) (A) (A) (A) (A) (A) (A)
                 (A) (A) (A) (A) (A) (A) (A) (A) (A) (A) (A) (A)
                 (A) (A) (A) (A) (A) (A) (A) (A) (A) (A) (A) (A)
                 (A) (A) (A) (A) (A) (A) (A) (A) (A) (A) (A) (A)
                 (A) (A) (A) (A) (A) (A) (A) (A) (A) (A) (A) (A)
                 (A) (A) (A) (A) (A) (A) (A) (A) (A) (A) (A) (A)
                 (A) (A) (A) (A) (A) (A) (A) (A) (A) (A) (A) (A)
                 (A) (A) (A) (A) (A) (A) (A) (A) (A) (A) (A) (A)
                 (A) (A) (A) (A) (A) (A) (A) (A) (A) (A) (A) (A)
                 (A) (A) (A) (A) (A) (A) (A) (A) (A) (A) (A) (A)
                 (A) (A) (A) (A) (A) (A) (A) (A) (A) (A) (A) (A)
                 (A) (A) (A) (A) (A) (A) (A) (A) (A) (A) (A) (A)
                 (A) (A) (A) (A) (A) (A) (A) (A) (A) (A) (A) (A)
                 (A) (A) (A) (A) (A) (A) (A) (A) (A) (A) (A) (A)
                 (A) (A) (A) (A) (A) (A) (A) (A) (A) (A) (A) (A)
                 (A) (A) (A) (A) (A) (A) (A) (A) (A) (A) (A) (A)
                 (A) (A) (A) (A) (A) (A) (A) (A) (A) (A) (A) (A)
                 (A) (A) (A) (A) (A) (A) (A) (A)
     8 initial guesses have been made.
 Convergence on wavefunction:    0.001000000000000
 Iteration     1 Dimension     8 NMult     0 NNew      8
 CISAX will form     8 AO SS matrices at one time.
 New state      1 was old state      2
 New state      2 was old state      4
 New state      3 was old state      1
 New state      4 was old state      8
 Vector   2 SDiff=1.63D-02 TDiff=6.87D+01 assumed to be singlet.
 Vector   4 SDiff=1.51D-02 TDiff=5.02D+01 assumed to be singlet.
 Iteration     2 Dimension    12 NMult     8 NNew      4
 New state      2 was old state      3
 Iteration     3 Dimension    16 NMult    12 NNew      4
 Iteration     4 Dimension    20 NMult    16 NNew      4
 Iteration     5 Dimension    24 NMult    20 NNew      4
 Iteration     6 Dimension    28 NMult    24 NNew      4
 Iteration     7 Dimension    30 NMult    28 NNew      2
 ***********************************************************************
 Excited states from <AA,BB:AA,BB> singles matrix:
 ***********************************************************************
 
 Ground to excited state transition densities written to RWF  633
 Ground to excited state transition electric dipole moments (Au):
       state          X           Y           Z        Dip. S.      Osc.
         1        -0.0000      0.0000     -0.0000      0.0000      0.0000
         2         0.0029     -1.9148      0.1392      3.6858      0.3162
 Ground to excited state transition velocity dipole moments (Au):
       state          X           Y           Z        Dip. S.      Osc.
         1         0.0000     -0.0000      0.0000      0.0000      0.0000
         2        -0.0003      0.2497     -0.0192      0.0627      0.3249
 Ground to excited state transition magnetic dipole moments (Au):
       state          X           Y           Z
         1        -0.0000      0.0000      0.0000
         2         0.0007     -0.2381     -0.4430
 Ground to excited state transition velocity quadrupole moments (Au):
       state          XX          YY          ZZ          XY          XZ          YZ
         1        -0.0000      0.0000      0.0000     -0.0000     -0.0000     -0.0000
         2        -0.0087      0.0039     -0.0002      0.7580     -0.0523     -0.0000
 <0|del|b> * <b|rxdel|0> + <0|del|b> * <b|delr+rdel|0>
 Rotatory Strengths (R) in cgs (10**-40 erg-esu-cm/Gauss)
       state          XX          YY          ZZ    R(velocity)    E-M Angle
         1        -0.0000      0.0000      0.0000     -0.0000       90.00
         2      -144.0885     63.4962   -199.1652    -93.2525      113.85
 1/2[<0|r|b>*<b|rxdel|0> + (<0|rxdel|b>*<b|r|0>)*]
 Rotatory Strengths (R) in cgs (10**-40 erg-esu-cm/Gauss)
       state          XX          YY          ZZ     R(length)
         1        -0.0000     -0.0000      0.0000     -0.0000
         2        -0.0015   -322.3372     43.6111    -92.9092
  1/2[<0|del|b>*<b|r|0> + (<0|r|b>*<b|del|0>)*] (Au)
       state          X           Y           Z        Dip. S.   Osc.(frdel)
         1        -0.0000     -0.0000     -0.0000      0.0000      0.0000
         2        -0.0000     -0.4781     -0.0027      0.4808      0.3205

 Excitation energies and oscillator strengths:
 
 Excited State   1:      Triplet-A      2.6709 eV  464.21 nm  f=0.0000  <S**2>=2.000
     105 ->106         0.68158
     105 ->112        -0.13134
 This state for optimization and/or second-order correction.
 Total Energy, E(TD-HF/TD-DFT) =  -1496.33128036    
 Copying the excited state density for this state as the 1-particle RhoCI density.
 
 Excited State   2:      Singlet-A      3.5022 eV  354.02 nm  f=0.3162  <S**2>=0.000
     105 ->106         0.70003
 SavETr:  write IOETrn=   770 NScale= 10 NData=  16 NLR=1 NState=    2 LETran=      46.

 **********************************************************************

            Population analysis using the SCF Density.

 **********************************************************************

 Orbital symmetries:
       Occupied  (A) (A) (A) (A) (A) (A) (A) (A) (A) (A) (A) (A)
                 (A) (A) (A) (A) (A) (A) (A) (A) (A) (A) (A) (A)
                 (A) (A) (A) (A) (A) (A) (A) (A) (A) (A) (A) (A)
                 (A) (A) (A) (A) (A) (A) (A) (A) (A) (A) (A) (A)
                 (A) (A) (A) (A) (A) (A) (A) (A) (A) (A) (A) (A)
                 (A) (A) (A) (A) (A) (A) (A) (A) (A) (A) (A) (A)
                 (A) (A) (A) (A) (A) (A) (A) (A) (A) (A) (A) (A)
                 (A) (A) (A) (A) (A) (A) (A) (A) (A) (A) (A) (A)
                 (A) (A) (A) (A) (A) (A) (A) (A) (A)
       Virtual   (A) (A) (A) (A) (A) (A) (A) (A) (A) (A) (A) (A)
                 (A) (A) (A) (A) (A) (A) (A) (A) (A) (A) (A) (A)
                 (A) (A) (A) (A) (A) (A) (A) (A) (A) (A) (A) (A)
                 (A) (A) (A) (A) (A) (A) (A) (A) (A) (A) (A) (A)
                 (A) (A) (A) (A) (A) (A) (A) (A) (A) (A) (A) (A)
                 (A) (A) (A) (A) (A) (A) (A) (A) (A) (A) (A) (A)
                 (A) (A) (A) (A) (A) (A) (A) (A) (A) (A) (A) (A)
                 (A) (A) (A) (A) (A) (A) (A) (A) (A) (A) (A) (A)
                 (A) (A) (A) (A) (A) (A) (A) (A) (A) (A) (A) (A)
                 (A) (A) (A) (A) (A) (A) (A) (A) (A) (A) (A) (A)
                 (A) (A) (A) (A) (A) (A) (A) (A) (A) (A) (A) (A)
                 (A) (A) (A) (A) (A) (A) (A) (A) (A) (A) (A) (A)
                 (A) (A) (A) (A) (A) (A) (A) (A) (A) (A) (A) (A)
                 (A) (A) (A) (A) (A) (A) (A) (A) (A) (A) (A) (A)
                 (A) (A) (A) (A) (A) (A) (A) (A) (A) (A) (A) (A)
                 (A) (A) (A) (A) (A) (A) (A) (A) (A) (A) (A) (A)
                 (A) (A) (A) (A) (A) (A) (A) (A) (A) (A) (A) (A)
                 (A) (A) (A) (A) (A) (A) (A) (A) (A) (A) (A) (A)
                 (A) (A) (A) (A) (A) (A) (A) (A) (A) (A) (A) (A)
                 (A) (A) (A) (A) (A) (A) (A) (A) (A) (A) (A) (A)
                 (A) (A) (A) (A) (A) (A) (A) (A) (A) (A) (A) (A)
                 (A) (A) (A) (A) (A) (A) (A) (A) (A) (A) (A) (A)
                 (A) (A) (A) (A) (A) (A) (A) (A) (A) (A) (A) (A)
                 (A) (A) (A) (A) (A) (A) (A) (A) (A) (A) (A) (A)
                 (A) (A) (A) (A) (A) (A) (A) (A) (A) (A) (A) (A)
                 (A) (A) (A) (A) (A) (A) (A) (A) (A) (A) (A) (A)
                 (A) (A) (A) (A) (A) (A) (A) (A) (A) (A) (A) (A)
                 (A) (A) (A) (A) (A) (A) (A) (A) (A) (A) (A) (A)
                 (A) (A) (A) (A) (A) (A) (A) (A) (A) (A) (A) (A)
                 (A) (A) (A) (A) (A) (A) (A) (A) (A) (A) (A) (A)
                 (A) (A) (A) (A) (A) (A) (A) (A) (A) (A) (A) (A)
                 (A) (A) (A) (A) (A) (A) (A) (A)
 The electronic state is 1-A.
 Alpha  occ. eigenvalues --  -77.19758 -19.17986 -19.17985 -10.25995 -10.25974
 Alpha  occ. eigenvalues --  -10.20148 -10.20146 -10.19441 -10.19441 -10.19151
 Alpha  occ. eigenvalues --  -10.19150 -10.18874 -10.18873 -10.18836 -10.18834
 Alpha  occ. eigenvalues --  -10.18728 -10.18726 -10.18613 -10.18612 -10.18548
 Alpha  occ. eigenvalues --  -10.18540 -10.18538 -10.18480 -10.17778 -10.17669
 Alpha  occ. eigenvalues --  -10.17621 -10.17618 -10.17563 -10.17560  -6.65170
 Alpha  occ. eigenvalues --   -4.81563  -4.81422  -4.81242  -1.08590  -1.01421
 Alpha  occ. eigenvalues --   -0.86198  -0.85358  -0.84805  -0.82913  -0.78649
 Alpha  occ. eigenvalues --   -0.78212  -0.76405  -0.74535  -0.74138  -0.74098
 Alpha  occ. eigenvalues --   -0.73160  -0.71375  -0.70329  -0.66507  -0.64914
 Alpha  occ. eigenvalues --   -0.62719  -0.61892  -0.60111  -0.60002  -0.59207
 Alpha  occ. eigenvalues --   -0.58879  -0.56460  -0.55997  -0.52879  -0.52274
 Alpha  occ. eigenvalues --   -0.51952  -0.50649  -0.49622  -0.49067  -0.47548
 Alpha  occ. eigenvalues --   -0.46237  -0.46158  -0.45144  -0.44512  -0.44508
 Alpha  occ. eigenvalues --   -0.44303  -0.43746  -0.42938  -0.42639  -0.41853
 Alpha  occ. eigenvalues --   -0.41600  -0.41540  -0.41218  -0.41024  -0.40511
 Alpha  occ. eigenvalues --   -0.37946  -0.37811  -0.36550  -0.36425  -0.36290
 Alpha  occ. eigenvalues --   -0.35643  -0.35508  -0.35179  -0.34949  -0.34376
 Alpha  occ. eigenvalues --   -0.34125  -0.34051  -0.32822  -0.32722  -0.32337
 Alpha  occ. eigenvalues --   -0.30642  -0.29843  -0.27456  -0.25503  -0.24790
 Alpha  occ. eigenvalues --   -0.24787  -0.23773  -0.23182  -0.22651  -0.17792
 Alpha virt. eigenvalues --   -0.03222  -0.00130  -0.00106   0.00035   0.00204
 Alpha virt. eigenvalues --    0.00943   0.01751   0.05505   0.05555   0.08384
 Alpha virt. eigenvalues --    0.09235   0.09620   0.10048   0.11015   0.11723
 Alpha virt. eigenvalues --    0.11986   0.12429   0.12565   0.13836   0.14110
 Alpha virt. eigenvalues --    0.14859   0.14967   0.15289   0.15880   0.16187
 Alpha virt. eigenvalues --    0.16378   0.16606   0.17312   0.17744   0.18375
 Alpha virt. eigenvalues --    0.18609   0.18750   0.19219   0.19349   0.19930
 Alpha virt. eigenvalues --    0.20263   0.20794   0.21399   0.22437   0.22947
 Alpha virt. eigenvalues --    0.23229   0.24195   0.25357   0.26904   0.27255
 Alpha virt. eigenvalues --    0.29896   0.30545   0.30704   0.31196   0.31308
 Alpha virt. eigenvalues --    0.31525   0.31703   0.33488   0.33698   0.34797
 Alpha virt. eigenvalues --    0.34869   0.35020   0.36726   0.37215   0.38624
 Alpha virt. eigenvalues --    0.38829   0.42100   0.43461   0.44496   0.45469
 Alpha virt. eigenvalues --    0.48971   0.49106   0.50856   0.51625   0.51691
 Alpha virt. eigenvalues --    0.51874   0.52216   0.52651   0.53280   0.53625
 Alpha virt. eigenvalues --    0.53990   0.54536   0.54930   0.54994   0.55883
 Alpha virt. eigenvalues --    0.56318   0.56437   0.56972   0.57304   0.57926
 Alpha virt. eigenvalues --    0.58714   0.59030   0.59559   0.59775   0.60051
 Alpha virt. eigenvalues --    0.60165   0.60300   0.60904   0.60964   0.61076
 Alpha virt. eigenvalues --    0.61211   0.61283   0.61787   0.61886   0.62266
 Alpha virt. eigenvalues --    0.62496   0.63383   0.63642   0.63861   0.64174
 Alpha virt. eigenvalues --    0.65138   0.65287   0.66680   0.67136   0.68244
 Alpha virt. eigenvalues --    0.69091   0.69783   0.70131   0.72101   0.72315
 Alpha virt. eigenvalues --    0.73113   0.74565   0.74646   0.75782   0.76805
 Alpha virt. eigenvalues --    0.77904   0.79276   0.79403   0.80545   0.80720
 Alpha virt. eigenvalues --    0.81061   0.81406   0.82393   0.82514   0.83153
 Alpha virt. eigenvalues --    0.83773   0.84227   0.84238   0.84686   0.84756
 Alpha virt. eigenvalues --    0.85262   0.85681   0.86382   0.87121   0.87596
 Alpha virt. eigenvalues --    0.88154   0.88813   0.89119   0.89871   0.90854
 Alpha virt. eigenvalues --    0.91124   0.91399   0.91889   0.91949   0.92319
 Alpha virt. eigenvalues --    0.92926   0.94270   0.95439   0.95653   0.96251
 Alpha virt. eigenvalues --    0.96524   0.96867   0.98321   0.98549   0.99149
 Alpha virt. eigenvalues --    0.99493   1.00721   1.01285   1.01665   1.03514
 Alpha virt. eigenvalues --    1.03599   1.05682   1.06345   1.07530   1.09007
 Alpha virt. eigenvalues --    1.09041   1.10013   1.11378   1.12401   1.12656
 Alpha virt. eigenvalues --    1.13643   1.13694   1.15201   1.15470   1.16074
 Alpha virt. eigenvalues --    1.17327   1.18002   1.18831   1.18901   1.19906
 Alpha virt. eigenvalues --    1.21137   1.22932   1.24797   1.25133   1.26889
 Alpha virt. eigenvalues --    1.26948   1.28630   1.28998   1.29572   1.30564
 Alpha virt. eigenvalues --    1.32205   1.35836   1.36599   1.37295   1.38782
 Alpha virt. eigenvalues --    1.40783   1.41054   1.41986   1.42869   1.44651
 Alpha virt. eigenvalues --    1.44811   1.45473   1.45702   1.46334   1.46591
 Alpha virt. eigenvalues --    1.47898   1.48060   1.48337   1.49114   1.49322
 Alpha virt. eigenvalues --    1.49810   1.49922   1.50661   1.51077   1.52231
 Alpha virt. eigenvalues --    1.52309   1.53229   1.53626   1.58971   1.59476
 Alpha virt. eigenvalues --    1.60378   1.62971   1.68328   1.70758   1.72930
 Alpha virt. eigenvalues --    1.74750   1.75752   1.77544   1.78982   1.79133
 Alpha virt. eigenvalues --    1.80345   1.81307   1.82042   1.82158   1.82705
 Alpha virt. eigenvalues --    1.83903   1.84199   1.86037   1.86094   1.87070
 Alpha virt. eigenvalues --    1.89029   1.89653   1.90445   1.90656   1.91466
 Alpha virt. eigenvalues --    1.92112   1.92369   1.92802   1.93514   1.94552
 Alpha virt. eigenvalues --    1.96271   1.97195   1.97361   1.98915   1.99246
 Alpha virt. eigenvalues --    2.00391   2.03248   2.03320   2.04652   2.05200
 Alpha virt. eigenvalues --    2.05875   2.06496   2.08132   2.08666   2.09410
 Alpha virt. eigenvalues --    2.10289   2.12785   2.13462   2.14227   2.14719
 Alpha virt. eigenvalues --    2.14888   2.15237   2.15984   2.16127   2.16969
 Alpha virt. eigenvalues --    2.19394   2.20124   2.20845   2.21782   2.22510
 Alpha virt. eigenvalues --    2.23619   2.24044   2.25089   2.28234   2.28342
 Alpha virt. eigenvalues --    2.29176   2.30078   2.30719   2.31489   2.31580
 Alpha virt. eigenvalues --    2.32523   2.32863   2.33168   2.33342   2.35020
 Alpha virt. eigenvalues --    2.36497   2.37373   2.37961   2.39876   2.41581
 Alpha virt. eigenvalues --    2.41933   2.43534   2.46161   2.47918   2.50187
 Alpha virt. eigenvalues --    2.51842   2.54890   2.55254   2.55999   2.58884
 Alpha virt. eigenvalues --    2.59071   2.60727   2.62369   2.63005   2.65152
 Alpha virt. eigenvalues --    2.65567   2.65662   2.66777   2.68231   2.68716
 Alpha virt. eigenvalues --    2.72215   2.72869   2.73388   2.75317   2.75536
 Alpha virt. eigenvalues --    2.75751   2.75904   2.76704   2.77927   2.81178
 Alpha virt. eigenvalues --    2.83518   2.84503   2.85792   2.85900   2.86800
 Alpha virt. eigenvalues --    2.93929   2.96195   2.96905   2.98577   3.09289
 Alpha virt. eigenvalues --    3.09561   3.22249   3.22575   3.41278   3.41296
 Alpha virt. eigenvalues --    3.44403   3.61924   3.91176   4.05896   4.09596
 Alpha virt. eigenvalues --    4.10002   4.10423   4.12536   4.12570   4.13167
 Alpha virt. eigenvalues --    4.13675   4.16880   4.17637   4.20554   4.22885
 Alpha virt. eigenvalues --    4.25575   4.25886   4.31582   4.34016   4.35320
 Alpha virt. eigenvalues --    4.36746   4.37194   4.42624   4.42995   4.46097
 Alpha virt. eigenvalues --    4.48883   4.61549   4.70749   4.71720   4.77550
          Condensed to atoms (all electrons):
 Mulliken charges:
               1
     1  C   -0.529688
     2  C    0.179706
     3  C   -0.185317
     4  C   -0.177696
     5  C    0.085923
     6  C    0.060905
     7  C   -0.175515
     8  C   -0.212127
     9  C    0.113042
    10  C   -0.165312
    11  C   -0.133674
    12  C   -0.127842
    13  C   -0.137469
    14  C   -0.196588
    15  P    0.969093
    16  O   -0.549090
    17  C   -0.067534
    18  C   -0.067531
    19  O   -0.549093
    20  C   -0.212079
    21  C    0.113066
    22  C   -0.165299
    23  C   -0.133679
    24  C   -0.127843
    25  C   -0.137476
    26  C   -0.196610
    27  C   -0.175589
    28  C   -0.177835
    29  C   -0.185483
    30  H    0.154319
    31  H    0.162762
    32  H    0.154298
    33  H    0.117160
    34  H    0.122802
    35  H    0.146761
    36  H    0.133936
    37  H    0.130117
    38  H    0.128027
    39  H    0.127222
    40  H    0.153469
    41  H    0.172738
    42  H    0.164434
    43  H    0.164425
    44  H    0.172740
    45  H    0.133949
    46  H    0.130124
    47  H    0.128028
    48  H    0.127220
    49  H    0.153458
    50  H    0.146708
    51  H    0.122627
    52  H    0.117309
 Sum of Mulliken charges =  -0.00000
 Mulliken charges with hydrogens summed into heavy atoms:
               1
     1  C   -0.058309
     2  C    0.179706
     3  C   -0.068157
     4  C   -0.054894
     5  C    0.085923
     6  C    0.060905
     7  C   -0.028754
     8  C   -0.212127
     9  C    0.113042
    10  C   -0.031375
    11  C   -0.003557
    12  C    0.000185
    13  C   -0.010247
    14  C   -0.043120
    15  P    0.969093
    16  O   -0.549090
    17  C    0.269638
    18  C    0.269634
    19  O   -0.549093
    20  C   -0.212079
    21  C    0.113066
    22  C   -0.031350
    23  C   -0.003554
    24  C    0.000185
    25  C   -0.010256
    26  C   -0.043153
    27  C   -0.028881
    28  C   -0.055208
    29  C   -0.068174
 Electronic spatial extent (au):  <R**2>=          13894.3227
 Charge=              0.0000 electrons
 Dipole moment (field-independent basis, Debye):
    X=              3.0864    Y=              0.0287    Z=             -0.0319  Tot=              3.0867
 Quadrupole moment (field-independent basis, Debye-Ang):
   XX=           -147.7117   YY=           -161.5206   ZZ=           -177.8850
   XY=             -0.1152   XZ=              0.1831   YZ=              5.2194
 Traceless Quadrupole moment (field-independent basis, Debye-Ang):
   XX=             14.6607   YY=              0.8518   ZZ=            -15.5125
   XY=             -0.1152   XZ=              0.1831   YZ=              5.2194
 Octapole moment (field-independent basis, Debye-Ang**2):
  XXX=             70.2962  YYY=             -0.2615  ZZZ=              0.0647  XYY=             33.9380
  XXY=              1.0360  XXZ=             -1.4126  XZZ=             11.1201  YZZ=              0.6310
  YYZ=             -0.3577  XYZ=            -34.2247
 Hexadecapole moment (field-independent basis, Debye-Ang**3):
 XXXX=          -9457.7108 YYYY=          -7390.2283 ZZZZ=           -721.3780 XXXY=             -6.0257
 XXXZ=             10.1073 YYYX=              3.3885 YYYZ=            149.1939 ZZZX=             -0.8111
 ZZZY=             10.0772 XXYY=          -2942.9604 XXZZ=          -1848.6942 YYZZ=          -1444.1247
 XXYZ=            -19.9234 YYXZ=              0.8542 ZZXY=             -4.1347
 N-N= 2.766455229347D+03 E-N=-9.023886494464D+03  KE= 1.483964660505D+03
 1\1\GINC-CNODE10\SP\RB3LYP TD-FC\6-31G(d)\C26H23O2P1\JUNHKIM\19-Jan-20
 26\0\\# b3lyp/6-31g* TD=(Nstates=1,50-50) Geom=Check Guess=Read SCF=XQ
 C\\TD-DFT calculation\\0,1\C,0,-6.6947344313,-2.7057491337,0.245327040
 8\C,0,-5.3000269775,-2.1292794019,0.1724132877\C,0,-4.2479623633,-2.84
 46402471,-0.4132176632\C,0,-2.9561462404,-2.3251979127,-0.4600135217\C
 ,0,-2.6543999375,-1.065748162,0.0863688983\C,0,-1.2762669347,-0.511304
 3184,0.0400111307\C,0,-1.0792659824,0.8567300453,-0.2069273228\C,0,0.1
 412421347,1.5362305355,-0.2961282512\C,0,0.183095851,3.0073258367,-0.5
 195680461\C,0,-0.6499528316,3.8543530565,0.2342732502\C,0,-0.648718733
 5,5.2329340527,0.0295208539\C,0,0.19693899,5.8025633626,-0.9246351784\
 C,0,1.0338614253,4.9769400745,-1.6765885382\C,0,1.0252056727,3.5951463
 969,-1.4817415293\P,0,1.5999308542,0.6445187309,-0.055248274\O,0,2.708
 6887773,0.8420039533,-1.2761601979\C,0,4.0127878794,1.2040181462,-0.79
 65245383\C,0,3.7668307778,1.9252348423,0.5353898505\O,0,2.6042491699,1
 .2961651448,1.0961543378\C,0,1.1794491329,-1.0024677617,0.2474891896\C
 ,0,2.2393334813,-2.0308757646,0.434069592\C,0,2.1817631374,-3.23560741
 61,-0.2905055918\C,0,3.1473822645,-4.2256988169,-0.1181451535\C,0,4.20
 48362011,-4.030793094,0.7728271249\C,0,4.2798863025,-2.8388842706,1.49
 48023871\C,0,3.3072625835,-1.851380695,1.3328277438\C,0,-0.1744967874,
 -1.3574913627,0.2435937388\C,0,-3.7125805015,-0.351622872,0.674365094\
 C,0,-5.0053448895,-0.8697870717,0.7092464199\H,0,-6.8949395419,-3.3789
 089752,-0.5955136163\H,0,-6.8416870958,-3.2862382714,1.166518895\H,0,-
 7.4560597691,-1.9180654508,0.2351737712\H,0,-4.4454869267,-3.819393469
 2,-0.8550139754\H,0,-2.1732788388,-2.8936328175,-0.9553576201\H,0,-1.9
 647811405,1.4632125072,-0.3876915385\H,0,-1.2895939294,3.4218791413,0.
 9986202286\H,0,-1.3017639697,5.8649179819,0.6260145465\H,0,0.201468100
 6,6.8778647875,-1.0813487042\H,0,1.6866474126,5.4070184277,-2.43224544
 62\H,0,1.6520241607,2.9587696043,-2.0980904029\H,0,4.6066473049,0.2934
 67144,-0.6598486095\H,0,4.4896811287,1.8445261002,-1.5430205144\H,0,4.
 5953844998,1.8092124079,1.2389340469\H,0,3.5575465225,2.9903004964,0.3
 860945542\H,0,1.3783748926,-3.3828314574,-1.0069490086\H,0,3.079802677
 1,-5.1471128043,-0.6909498933\H,0,4.9604301303,-4.800667688,0.90406655
 14\H,0,5.090600446,-2.6810370445,2.2018678292\H,0,3.354045334,-0.94447
 27336,1.9270448184\H,0,-0.3828787387,-2.4035850113,0.4602418249\H,0,-3
 .5161481547,0.6154832502,1.1298971113\H,0,-5.7988865297,-0.2883430022,
 1.1745990183\\Version=ES64L-G16RevB.01\State=1-A\HF=-1496.4294333\RMSD
 =4.774e-09\PG=C01 [X(C26H23O2P1)]\\@


 Other things may change us, but we start and end with family.
 -- Anthony Brandt
 Job cpu time:       0 days  0 hours 53 minutes 35.7 seconds.
 Elapsed time:       0 days  0 hours  3 minutes 21.3 seconds.
 File lengths (MBytes):  RWF=   1197 Int=      0 D2E=      0 Chk=     68 Scr=      2
 Normal termination of Gaussian 16 at Mon Jan 19 14:25:08 2026.
