 Entering Gaussian System, Link 0=g16
 Initial command:
 /appl/Gaussian16/AVX_revB01/g16/l1.exe "/home/junhkim/WORK/Review_DD/TADF-Design/data/td_dft/results/mol_491/Gau-1878557.inp" -scrdir="/home/junhkim/WORK/Review_DD/TADF-Design/data/td_dft/results/mol_491/"
 Entering Link 1 = /appl/Gaussian16/AVX_revB01/g16/l1.exe PID=   1878559.
  
 Copyright (c) 1988-2017, Gaussian, Inc.  All Rights Reserved.
  
 This is part of the Gaussian(R) 16 program.  It is based on
 the Gaussian(R) 09 system (copyright 2009, Gaussian, Inc.),
 the Gaussian(R) 03 system (copyright 2003, Gaussian, Inc.),
 the Gaussian(R) 98 system (copyright 1998, Gaussian, Inc.),
 the Gaussian(R) 94 system (copyright 1995, Gaussian, Inc.),
 the Gaussian 92(TM) system (copyright 1992, Gaussian, Inc.),
 the Gaussian 90(TM) system (copyright 1990, Gaussian, Inc.),
 the Gaussian 88(TM) system (copyright 1988, Gaussian, Inc.),
 the Gaussian 86(TM) system (copyright 1986, Carnegie Mellon
 University), and the Gaussian 82(TM) system (copyright 1983,
 Carnegie Mellon University). Gaussian is a federally registered
 trademark of Gaussian, Inc.
  
 This software contains proprietary and confidential information,
 including trade secrets, belonging to Gaussian, Inc.
  
 This software is provided under written license and may be
 used, copied, transmitted, or stored only in accord with that
 written license.
  
 The following legend is applicable only to US Government
 contracts under FAR:
  
                    RESTRICTED RIGHTS LEGEND
  
 Use, reproduction and disclosure by the US Government is
 subject to restrictions as set forth in subparagraphs (a)
 and (c) of the Commercial Computer Software - Restricted
 Rights clause in FAR 52.227-19.
  
 Gaussian, Inc.
 340 Quinnipiac St., Bldg. 40, Wallingford CT 06492
  
  
 ---------------------------------------------------------------
 Warning -- This program may not be used in any manner that
 competes with the business of Gaussian, Inc. or will provide
 assistance to any competitor of Gaussian, Inc.  The licensee
 of this program is prohibited from giving any competitor of
 Gaussian, Inc. access to this program.  By using this program,
 the user acknowledges that Gaussian, Inc. is engaged in the
 business of creating and licensing software in the field of
 computational chemistry and represents and warrants to the
 licensee that it is not a competitor of Gaussian, Inc. and that
 it will not use this program in any manner prohibited above.
 ---------------------------------------------------------------
  

 Cite this work as:
 Gaussian 16, Revision B.01,
 M. J. Frisch, G. W. Trucks, H. B. Schlegel, G. E. Scuseria, 
 M. A. Robb, J. R. Cheeseman, G. Scalmani, V. Barone, 
 G. A. Petersson, H. Nakatsuji, X. Li, M. Caricato, A. V. Marenich, 
 J. Bloino, B. G. Janesko, R. Gomperts, B. Mennucci, H. P. Hratchian, 
 J. V. Ortiz, A. F. Izmaylov, J. L. Sonnenberg, D. Williams-Young, 
 F. Ding, F. Lipparini, F. Egidi, J. Goings, B. Peng, A. Petrone, 
 T. Henderson, D. Ranasinghe, V. G. Zakrzewski, J. Gao, N. Rega, 
 G. Zheng, W. Liang, M. Hada, M. Ehara, K. Toyota, R. Fukuda, 
 J. Hasegawa, M. Ishida, T. Nakajima, Y. Honda, O. Kitao, H. Nakai, 
 T. Vreven, K. Throssell, J. A. Montgomery, Jr., J. E. Peralta, 
 F. Ogliaro, M. J. Bearpark, J. J. Heyd, E. N. Brothers, K. N. Kudin, 
 V. N. Staroverov, T. A. Keith, R. Kobayashi, J. Normand, 
 K. Raghavachari, A. P. Rendell, J. C. Burant, S. S. Iyengar, 
 J. Tomasi, M. Cossi, J. M. Millam, M. Klene, C. Adamo, R. Cammi, 
 J. W. Ochterski, R. L. Martin, K. Morokuma, O. Farkas, 
 J. B. Foresman, and D. J. Fox, Gaussian, Inc., Wallingford CT, 2016.
 
 ******************************************
 Gaussian 16:  ES64L-G16RevB.01 20-Dec-2017
                18-Jan-2026 
 ******************************************
 %mem=60GB
 %chk=opt.chk
 %nprocshared=16
 Will use up to   16 processors via shared memory.
 ---------------------------
 #P b3lyp/6-31g* opt SCF=XQC
 ---------------------------
 1/18=20,19=15,26=3,38=1/1,3;
 2/9=110,12=2,17=6,18=5,40=1/2;
 3/5=1,6=6,7=1,11=2,25=1,30=1,71=1,74=-5/1,2,3;
 4//1;
 5/5=2,8=3,13=1,38=5/2,8;
 6/7=2,8=2,9=2,10=2,28=1/1;
 7//1,2,3,16;
 1/18=20,19=15,26=3/3(2);
 2/9=110/2;
 99//99;
 2/9=110/2;
 3/5=1,6=6,7=1,11=2,25=1,30=1,71=1,74=-5/1,2,3;
 4/5=5,16=3,69=1/1;
 5/5=2,8=3,13=1,38=5/2,8;
 7//1,2,3,16;
 1/18=20,19=15,26=3/3(-5);
 2/9=110/2;
 6/7=2,8=2,9=2,10=2,19=2,28=1/1;
 99/9=1/99;
 Leave Link    1 at Sun Jan 18 23:58:59 2026, MaxMem=  8053063680 cpu:               0.7 elap:               0.1
 (Enter /appl/Gaussian16/AVX_revB01/g16/l101.exe)
 ------------------------------
 Gaussian input prepared by ASE
 ------------------------------
 Symbolic Z-matrix:
 Charge =  0 Multiplicity = 1
 C                     1.46936  -2.68744   0.44485 
 N                     1.13837  -1.31404   0.18393 
 C                     2.02613  -0.28658  -0.06127 
 C                     3.41103  -0.32088  -0.11265 
 C                     4.08195   0.85883  -0.37901 
 C                     3.38426   2.04699  -0.58936 
 Cl                    4.28113   3.48981  -0.91827 
 C                     2.00312   2.10322  -0.54246 
 C                     1.32309   0.92427  -0.2759 
 C                    -0.07058   0.60086  -0.15167 
 N                    -1.15244   1.32516  -0.25193 
 C                    -2.31178   0.65413  -0.06753 
 C                    -3.53554   1.34622  -0.15533 
 C                    -4.70007   0.65295   0.03379 
 C                    -4.62748  -0.7252    0.30864 
 N                    -3.51656  -1.40097   0.3979 
 C                    -2.3551   -0.7512    0.21777 
 N                    -1.22933  -1.48848   0.31895 
 C                    -0.12304  -0.81523   0.13628 
 H                     2.08329  -2.77002   1.3441 
 H                     2.01147  -3.11847  -0.39938 
 H                     0.53449  -3.22515   0.59084 
 H                     3.95668  -1.23686   0.04918 
 H                     5.15948   0.86685  -0.42599 
 H                     1.46671   3.02333  -0.70555 
 H                    -3.51439   2.40426  -0.36969 
 H                    -5.66051   1.14124  -0.02404 
 H                    -5.53375  -1.29761   0.46239 
 
 ITRead=  0  0  0  0  0  0  0  0  0  0  0  0  0  0  0  0  0  0  0  0
 ITRead=  0  0  0  0  0  0  0  0
 MicOpt= -1 -1 -1 -1 -1 -1 -1 -1 -1 -1 -1 -1 -1 -1 -1 -1 -1 -1 -1 -1
 MicOpt= -1 -1 -1 -1 -1 -1 -1 -1
 NAtoms=     28 NQM=       28 NQMF=       0 NMMI=      0 NMMIF=      0
                NMic=       0 NMicF=      0.
                    Isotopes and Nuclear Properties:
 (Nuclear quadrupole moments (NQMom) in fm**2, nuclear magnetic moments (NMagM)
  in nuclear magnetons)

  Atom         1           2           3           4           5           6           7           8           9          10
 IAtWgt=          12          14          12          12          12          12          35          12          12          12
 AtmWgt=  12.0000000  14.0030740  12.0000000  12.0000000  12.0000000  12.0000000  34.9688527  12.0000000  12.0000000  12.0000000
 NucSpn=           0           2           0           0           0           0           3           0           0           0
 AtZEff=  -0.0000000  -0.0000000  -0.0000000  -0.0000000  -0.0000000  -0.0000000  -0.0000000  -0.0000000  -0.0000000  -0.0000000
 NQMom=    0.0000000   2.0440000   0.0000000   0.0000000   0.0000000   0.0000000  -8.1650000   0.0000000   0.0000000   0.0000000
 NMagM=    0.0000000   0.4037610   0.0000000   0.0000000   0.0000000   0.0000000   0.8218740   0.0000000   0.0000000   0.0000000
 AtZNuc=   6.0000000   7.0000000   6.0000000   6.0000000   6.0000000   6.0000000  17.0000000   6.0000000   6.0000000   6.0000000

  Atom        11          12          13          14          15          16          17          18          19          20
 IAtWgt=          14          12          12          12          12          14          12          14          12           1
 AtmWgt=  14.0030740  12.0000000  12.0000000  12.0000000  12.0000000  14.0030740  12.0000000  14.0030740  12.0000000   1.0078250
 NucSpn=           2           0           0           0           0           2           0           2           0           1
 AtZEff=  -0.0000000  -0.0000000  -0.0000000  -0.0000000  -0.0000000  -0.0000000  -0.0000000  -0.0000000  -0.0000000  -0.0000000
 NQMom=    2.0440000   0.0000000   0.0000000   0.0000000   0.0000000   2.0440000   0.0000000   2.0440000   0.0000000   0.0000000
 NMagM=    0.4037610   0.0000000   0.0000000   0.0000000   0.0000000   0.4037610   0.0000000   0.4037610   0.0000000   2.7928460
 AtZNuc=   7.0000000   6.0000000   6.0000000   6.0000000   6.0000000   7.0000000   6.0000000   7.0000000   6.0000000   1.0000000

  Atom        21          22          23          24          25          26          27          28
 IAtWgt=           1           1           1           1           1           1           1           1
 AtmWgt=   1.0078250   1.0078250   1.0078250   1.0078250   1.0078250   1.0078250   1.0078250   1.0078250
 NucSpn=           1           1           1           1           1           1           1           1
 AtZEff=  -0.0000000  -0.0000000  -0.0000000  -0.0000000  -0.0000000  -0.0000000  -0.0000000  -0.0000000
 NQMom=    0.0000000   0.0000000   0.0000000   0.0000000   0.0000000   0.0000000   0.0000000   0.0000000
 NMagM=    2.7928460   2.7928460   2.7928460   2.7928460   2.7928460   2.7928460   2.7928460   2.7928460
 AtZNuc=   1.0000000   1.0000000   1.0000000   1.0000000   1.0000000   1.0000000   1.0000000   1.0000000
 Leave Link  101 at Sun Jan 18 23:59:00 2026, MaxMem=  8053063680 cpu:               9.8 elap:               0.6
 (Enter /appl/Gaussian16/AVX_revB01/g16/l103.exe)

 GradGradGradGradGradGradGradGradGradGradGradGradGradGradGradGradGradGrad
 Berny optimization.
 Initialization pass.
                           ----------------------------
                           !    Initial Parameters    !
                           ! (Angstroms and Degrees)  !
 --------------------------                            --------------------------
 ! Name  Definition              Value          Derivative Info.                !
 --------------------------------------------------------------------------------
 ! R1    R(1,2)                  1.4366         estimate D2E/DX2                !
 ! R2    R(1,20)                 1.092          estimate D2E/DX2                !
 ! R3    R(1,21)                 1.092          estimate D2E/DX2                !
 ! R4    R(1,22)                 1.0883         estimate D2E/DX2                !
 ! R5    R(2,3)                  1.3798         estimate D2E/DX2                !
 ! R6    R(2,19)                 1.3573         estimate D2E/DX2                !
 ! R7    R(3,4)                  1.3863         estimate D2E/DX2                !
 ! R8    R(3,9)                  1.4165         estimate D2E/DX2                !
 ! R9    R(4,5)                  1.383          estimate D2E/DX2                !
 ! R10   R(4,23)                 1.0784         estimate D2E/DX2                !
 ! R11   R(5,6)                  1.3938         estimate D2E/DX2                !
 ! R12   R(5,24)                 1.0786         estimate D2E/DX2                !
 ! R13   R(6,7)                  1.7304         estimate D2E/DX2                !
 ! R14   R(6,8)                  1.3831         estimate D2E/DX2                !
 ! R15   R(8,9)                  1.3869         estimate D2E/DX2                !
 ! R16   R(8,25)                 1.0775         estimate D2E/DX2                !
 ! R17   R(9,10)                 1.4361         estimate D2E/DX2                !
 ! R18   R(10,11)                1.3058         estimate D2E/DX2                !
 ! R19   R(10,19)                1.446          estimate D2E/DX2                !
 ! R20   R(11,12)                1.3522         estimate D2E/DX2                !
 ! R21   R(12,13)                1.4086         estimate D2E/DX2                !
 ! R22   R(12,17)                1.4347         estimate D2E/DX2                !
 ! R23   R(13,14)                1.3684         estimate D2E/DX2                !
 ! R24   R(13,26)                1.0797         estimate D2E/DX2                !
 ! R25   R(14,15)                1.4072         estimate D2E/DX2                !
 ! R26   R(14,27)                1.079          estimate D2E/DX2                !
 ! R27   R(15,16)                1.3034         estimate D2E/DX2                !
 ! R28   R(15,28)                1.0829         estimate D2E/DX2                !
 ! R29   R(16,17)                1.343          estimate D2E/DX2                !
 ! R30   R(17,18)                1.3495         estimate D2E/DX2                !
 ! R31   R(18,19)                1.3079         estimate D2E/DX2                !
 ! A1    A(2,1,20)             110.5727         estimate D2E/DX2                !
 ! A2    A(2,1,21)             110.5681         estimate D2E/DX2                !
 ! A3    A(2,1,22)             107.3849         estimate D2E/DX2                !
 ! A4    A(20,1,21)            109.1302         estimate D2E/DX2                !
 ! A5    A(20,1,22)            109.5802         estimate D2E/DX2                !
 ! A6    A(21,1,22)            109.5811         estimate D2E/DX2                !
 ! A7    A(1,2,3)              126.5776         estimate D2E/DX2                !
 ! A8    A(1,2,19)             124.8782         estimate D2E/DX2                !
 ! A9    A(3,2,19)             108.5441         estimate D2E/DX2                !
 ! A10   A(2,3,4)              129.117          estimate D2E/DX2                !
 ! A11   A(2,3,9)              110.1284         estimate D2E/DX2                !
 ! A12   A(4,3,9)              120.7546         estimate D2E/DX2                !
 ! A13   A(3,4,5)              118.077          estimate D2E/DX2                !
 ! A14   A(3,4,23)             121.395          estimate D2E/DX2                !
 ! A15   A(5,4,23)             120.528          estimate D2E/DX2                !
 ! A16   A(4,5,6)              120.8878         estimate D2E/DX2                !
 ! A17   A(4,5,24)             119.958          estimate D2E/DX2                !
 ! A18   A(6,5,24)             119.1543         estimate D2E/DX2                !
 ! A19   A(5,6,7)              118.6864         estimate D2E/DX2                !
 ! A20   A(5,6,8)              121.9651         estimate D2E/DX2                !
 ! A21   A(7,6,8)              119.3485         estimate D2E/DX2                !
 ! A22   A(6,8,9)              117.4903         estimate D2E/DX2                !
 ! A23   A(6,8,25)             121.7852         estimate D2E/DX2                !
 ! A24   A(9,8,25)             120.7245         estimate D2E/DX2                !
 ! A25   A(3,9,8)              120.8253         estimate D2E/DX2                !
 ! A26   A(3,9,10)             106.0246         estimate D2E/DX2                !
 ! A27   A(8,9,10)             133.1501         estimate D2E/DX2                !
 ! A28   A(9,10,11)            132.2591         estimate D2E/DX2                !
 ! A29   A(9,10,19)            105.841          estimate D2E/DX2                !
 ! A30   A(11,10,19)           121.9            estimate D2E/DX2                !
 ! A31   A(10,11,12)           115.1266         estimate D2E/DX2                !
 ! A32   A(11,12,13)           119.5075         estimate D2E/DX2                !
 ! A33   A(11,12,17)           122.6243         estimate D2E/DX2                !
 ! A34   A(13,12,17)           117.8682         estimate D2E/DX2                !
 ! A35   A(12,13,14)           118.8022         estimate D2E/DX2                !
 ! A36   A(12,13,26)           118.4765         estimate D2E/DX2                !
 ! A37   A(14,13,26)           122.7213         estimate D2E/DX2                !
 ! A38   A(13,14,15)           118.6381         estimate D2E/DX2                !
 ! A39   A(13,14,27)           121.3878         estimate D2E/DX2                !
 ! A40   A(15,14,27)           119.9741         estimate D2E/DX2                !
 ! A41   A(14,15,16)           124.4119         estimate D2E/DX2                !
 ! A42   A(14,15,28)           120.1496         estimate D2E/DX2                !
 ! A43   A(16,15,28)           115.4385         estimate D2E/DX2                !
 ! A44   A(15,16,17)           118.4959         estimate D2E/DX2                !
 ! A45   A(12,17,16)           121.7836         estimate D2E/DX2                !
 ! A46   A(12,17,18)           121.6606         estimate D2E/DX2                !
 ! A47   A(16,17,18)           116.5557         estimate D2E/DX2                !
 ! A48   A(17,18,19)           114.4518         estimate D2E/DX2                !
 ! A49   A(2,19,10)            109.462          estimate D2E/DX2                !
 ! A50   A(2,19,18)            126.3013         estimate D2E/DX2                !
 ! A51   A(10,19,18)           124.2367         estimate D2E/DX2                !
 ! D1    D(20,1,2,3)            60.6529         estimate D2E/DX2                !
 ! D2    D(20,1,2,19)         -119.5061         estimate D2E/DX2                !
 ! D3    D(21,1,2,3)           -60.3252         estimate D2E/DX2                !
 ! D4    D(21,1,2,19)          119.5158         estimate D2E/DX2                !
 ! D5    D(22,1,2,3)          -179.8353         estimate D2E/DX2                !
 ! D6    D(22,1,2,19)            0.0056         estimate D2E/DX2                !
 ! D7    D(1,2,3,4)             -0.143          estimate D2E/DX2                !
 ! D8    D(1,2,3,9)            179.8858         estimate D2E/DX2                !
 ! D9    D(19,2,3,4)           179.9946         estimate D2E/DX2                !
 ! D10   D(19,2,3,9)             0.0234         estimate D2E/DX2                !
 ! D11   D(1,2,19,10)         -179.8901         estimate D2E/DX2                !
 ! D12   D(1,2,19,18)            0.128          estimate D2E/DX2                !
 ! D13   D(3,2,19,10)           -0.0248         estimate D2E/DX2                !
 ! D14   D(3,2,19,18)          179.9933         estimate D2E/DX2                !
 ! D15   D(2,3,4,5)           -179.9766         estimate D2E/DX2                !
 ! D16   D(2,3,4,23)             0.0287         estimate D2E/DX2                !
 ! D17   D(9,3,4,5)             -0.0081         estimate D2E/DX2                !
 ! D18   D(9,3,4,23)           179.9972         estimate D2E/DX2                !
 ! D19   D(2,3,9,8)            179.981          estimate D2E/DX2                !
 ! D20   D(2,3,9,10)            -0.0124         estimate D2E/DX2                !
 ! D21   D(4,3,9,8)              0.007          estimate D2E/DX2                !
 ! D22   D(4,3,9,10)          -179.9864         estimate D2E/DX2                !
 ! D23   D(3,4,5,6)              0.0047         estimate D2E/DX2                !
 ! D24   D(3,4,5,24)          -180.0            estimate D2E/DX2                !
 ! D25   D(23,4,5,6)           179.9995         estimate D2E/DX2                !
 ! D26   D(23,4,5,24)           -0.0052         estimate D2E/DX2                !
 ! D27   D(4,5,6,7)            179.9972         estimate D2E/DX2                !
 ! D28   D(4,5,6,8)              0.0            estimate D2E/DX2                !
 ! D29   D(24,5,6,7)             0.0018         estimate D2E/DX2                !
 ! D30   D(24,5,6,8)          -179.9953         estimate D2E/DX2                !
 ! D31   D(5,6,8,9)             -0.0013         estimate D2E/DX2                !
 ! D32   D(5,6,8,25)          -179.9986         estimate D2E/DX2                !
 ! D33   D(7,6,8,9)           -179.9985         estimate D2E/DX2                !
 ! D34   D(7,6,8,25)             0.0043         estimate D2E/DX2                !
 ! D35   D(6,8,9,3)             -0.0021         estimate D2E/DX2                !
 ! D36   D(6,8,9,10)           179.9891         estimate D2E/DX2                !
 ! D37   D(25,8,9,3)           179.9952         estimate D2E/DX2                !
 ! D38   D(25,8,9,10)           -0.0136         estimate D2E/DX2                !
 ! D39   D(3,9,10,11)          179.9912         estimate D2E/DX2                !
 ! D40   D(3,9,10,19)           -0.0026         estimate D2E/DX2                !
 ! D41   D(8,9,10,11)           -0.0009         estimate D2E/DX2                !
 ! D42   D(8,9,10,19)         -179.9947         estimate D2E/DX2                !
 ! D43   D(9,10,11,12)         179.9994         estimate D2E/DX2                !
 ! D44   D(19,10,11,12)         -0.0076         estimate D2E/DX2                !
 ! D45   D(9,10,19,2)            0.0169         estimate D2E/DX2                !
 ! D46   D(9,10,19,18)         179.9993         estimate D2E/DX2                !
 ! D47   D(11,10,19,2)        -179.9777         estimate D2E/DX2                !
 ! D48   D(11,10,19,18)          0.0047         estimate D2E/DX2                !
 ! D49   D(10,11,12,13)       -179.9978         estimate D2E/DX2                !
 ! D50   D(10,11,12,17)          0.003          estimate D2E/DX2                !
 ! D51   D(11,12,13,14)       -179.9993         estimate D2E/DX2                !
 ! D52   D(11,12,13,26)          0.0042         estimate D2E/DX2                !
 ! D53   D(17,12,13,14)         -0.0001         estimate D2E/DX2                !
 ! D54   D(17,12,13,26)       -179.9966         estimate D2E/DX2                !
 ! D55   D(11,12,17,16)       -179.9967         estimate D2E/DX2                !
 ! D56   D(11,12,17,18)          0.0053         estimate D2E/DX2                !
 ! D57   D(13,12,17,16)          0.0041         estimate D2E/DX2                !
 ! D58   D(13,12,17,18)       -179.9939         estimate D2E/DX2                !
 ! D59   D(12,13,14,15)         -0.0026         estimate D2E/DX2                !
 ! D60   D(12,13,14,27)        179.9996         estimate D2E/DX2                !
 ! D61   D(26,13,14,15)        179.9938         estimate D2E/DX2                !
 ! D62   D(26,13,14,27)         -0.004          estimate D2E/DX2                !
 ! D63   D(13,14,15,16)          0.0016         estimate D2E/DX2                !
 ! D64   D(13,14,15,28)       -179.9966         estimate D2E/DX2                !
 ! D65   D(27,14,15,16)        179.9995         estimate D2E/DX2                !
 ! D66   D(27,14,15,28)          0.0013         estimate D2E/DX2                !
 ! D67   D(14,15,16,17)          0.0024         estimate D2E/DX2                !
 ! D68   D(28,15,16,17)       -179.9994         estimate D2E/DX2                !
 ! D69   D(15,16,17,12)         -0.0052         estimate D2E/DX2                !
 ! D70   D(15,16,17,18)        179.9929         estimate D2E/DX2                !
 ! D71   D(12,17,18,19)         -0.0081         estimate D2E/DX2                !
 ! D72   D(16,17,18,19)        179.9938         estimate D2E/DX2                !
 ! D73   D(17,18,19,2)         179.983          estimate D2E/DX2                !
 ! D74   D(17,18,19,10)          0.0036         estimate D2E/DX2                !
 --------------------------------------------------------------------------------
 Trust Radius=3.00D-01 FncErr=1.00D-07 GrdErr=1.00D-06 EigMax=2.50D+02 EigMin=1.00D-04
 Number of steps in this run=    166 maximum allowed number of steps=    168.
 GradGradGradGradGradGradGradGradGradGradGradGradGradGradGradGradGradGrad

 Leave Link  103 at Sun Jan 18 23:59:00 2026, MaxMem=  8053063680 cpu:               0.1 elap:               0.0
 (Enter /appl/Gaussian16/AVX_revB01/g16/l202.exe)
                          Input orientation:                          
 ---------------------------------------------------------------------
 Center     Atomic      Atomic             Coordinates (Angstroms)
 Number     Number       Type             X           Y           Z
 ---------------------------------------------------------------------
      1          6           0        1.469358   -2.687440    0.444850
      2          7           0        1.138372   -1.314044    0.183934
      3          6           0        2.026132   -0.286579   -0.061272
      4          6           0        3.411030   -0.320882   -0.112650
      5          6           0        4.081954    0.858828   -0.379010
      6          6           0        3.384255    2.046991   -0.589361
      7         17           0        4.281129    3.489812   -0.918270
      8          6           0        2.003124    2.103224   -0.542465
      9          6           0        1.323094    0.924268   -0.275901
     10          6           0       -0.070580    0.600863   -0.151670
     11          7           0       -1.152438    1.325163   -0.251926
     12          6           0       -2.311785    0.654127   -0.067525
     13          6           0       -3.535544    1.346217   -0.155326
     14          6           0       -4.700069    0.652946    0.033794
     15          6           0       -4.627476   -0.725195    0.308637
     16          7           0       -3.516560   -1.400966    0.397899
     17          6           0       -2.355101   -0.751204    0.217767
     18          7           0       -1.229331   -1.488479    0.318954
     19          6           0       -0.123036   -0.815226    0.136279
     20          1           0        2.083294   -2.770016    1.344103
     21          1           0        2.011466   -3.118470   -0.399384
     22          1           0        0.534492   -3.225147    0.590841
     23          1           0        3.956681   -1.236863    0.049177
     24          1           0        5.159485    0.866846   -0.425991
     25          1           0        1.466711    3.023333   -0.705546
     26          1           0       -3.514395    2.404257   -0.369687
     27          1           0       -5.660510    1.141243   -0.024040
     28          1           0       -5.533754   -1.297609    0.462392
 ---------------------------------------------------------------------
                    Distance matrix (angstroms):
                    1          2          3          4          5
     1  C    0.000000
     2  N    1.436610   0.000000
     3  C    2.516007   1.379828   0.000000
     4  C    3.111510   2.497860   1.386275   0.000000
     5  C    4.481119   3.701750   2.374726   1.383041   0.000000
     6  C    5.210688   4.115644   2.751168   2.415531   1.393831
     7  Cl   6.922615   5.845408   4.481137   3.990925   2.693056
     8  C    4.920383   3.599051   2.437876   2.836059   2.428328
     9  C    3.685826   2.292511   1.416502   2.436498   2.761562
    10  C    3.679698   2.289336   2.278580   3.601769   4.166746
    11  N    4.843583   3.521817   3.568945   4.853256   5.256661
    12  C    5.072045   3.980014   4.438748   5.805453   6.404594
    13  C    6.455977   5.388652   5.797163   7.143943   7.636351
    14  C    7.027729   6.162709   6.792166   8.170661   8.794130
    15  C    6.406274   5.797180   6.678302   8.059685   8.878973
    16  N    5.149427   4.660658   5.672224   7.029846   7.965405
    17  C    4.292675   3.538684   4.414628   5.791598   6.662134
    18  N    2.955720   2.377957   3.491014   4.804427   5.848655
    19  C    2.477119   1.357292   2.222029   3.577144   4.555208
    20  H    1.091967   2.087756   2.854086   3.143767   4.486900
    21  H    1.091970   2.087703   2.852041   3.141257   4.483998
    22  H    1.088309   2.045132   3.359378   4.147786   5.495813
    23  H    2.906459   2.822584   2.154590   1.078399   2.142652
    24  H    5.196956   4.614936   3.358766   2.136814   1.078584
    25  H    5.825491   4.439799   3.418122   3.913524   3.410455
    26  H    7.171237   5.981680   6.167103   7.446741   7.751965
    27  H    8.106398   7.231631   7.818218   9.189042   9.753019
    28  H    7.139714   6.677955   7.645148   9.016309   9.890401
                    6          7          8          9         10
     6  C    0.000000
     7  Cl   1.730403   0.000000
     8  C    1.383071   2.693169   0.000000
     9  C    2.367942   3.967950   1.386880   0.000000
    10  C    3.770775   5.279306   2.590378   1.436089   0.000000
    11  N    4.606135   5.886711   3.263030   2.507897   1.305787
    12  C    5.887041   7.227128   4.576449   3.650854   2.243416
    13  C    6.968722   8.141096   5.603550   4.878416   3.544226
    14  C    8.227270   9.466580   6.882454   6.037219   4.633495
    15  C    8.525213   9.931507   7.258732   6.202555   4.768188
    16  N    7.777168   9.298170   6.605342   5.411374   4.022949
    17  C    6.435958   7.957157   5.264963   4.071858   2.680225
    18  N    5.883007   7.528564   4.908273   3.562313   2.435065
    19  C    4.584749   6.248367   3.674044   2.299352   1.446019
    20  H    5.351107   7.009583   5.226283   4.104881   4.270753
    21  H    5.348143   7.006426   5.223661   4.102783   4.269626
    22  H    6.108148   7.836159   5.642057   4.311703   3.944083
    23  H    3.393980   4.835564   3.914410   3.422271   4.431298
    24  H    2.137960   2.809590   3.391874   3.839755   5.244004
    25  H    2.154929   2.860735   1.077467   2.147393   2.922055
    26  H    6.911386   7.889839   5.528425   5.059690   3.893536
    27  H    9.107565  10.254346   7.741154   6.991512   5.617439
    28  H    9.582454  11.007159   8.329462   7.245563   5.816145
                   11         12         13         14         15
    11  N    0.000000
    12  C    1.352175   0.000000
    13  C    2.385156   1.408646   0.000000
    14  C    3.622043   2.390433   1.368397   0.000000
    15  C    4.073584   2.721480   2.387117   1.407154   0.000000
    16  N    3.666487   2.427244   2.802398   2.398295   1.303368
    17  C    2.445058   1.434651   2.435533   2.739408   2.274340
    18  N    2.872003   2.431426   3.684977   4.088158   3.482829
    19  C    2.406582   2.644079   4.049948   4.807833   4.508636
    20  H    5.457817   5.747536   7.124816   7.710227   7.091398
    21  H    5.456913   5.747444   7.124767   7.710766   7.092574
    22  H    4.925578   4.856285   6.165982   6.538389   5.742414
    23  H    5.723437   6.548520   7.927645   8.860639   8.603306
    24  H    6.330934   7.482888   8.712438   9.872586   9.942780
    25  H    3.154282   4.505245   5.304527   6.647896   7.226281
    26  H    2.599452   2.144884   1.079744   2.153070   3.390066
    27  H    4.517574   3.384248   2.138863   1.078994   2.159034
    28  H    5.156075   3.804099   3.371088   2.164114   1.082884
                   16         17         18         19         20
    16  N    0.000000
    17  C    1.342991   0.000000
    18  N    2.290263   1.349507   0.000000
    19  C    3.453628   2.234469   1.307873   0.000000
    20  H    5.841915   5.004357   3.696858   3.185583   0.000000
    21  H    5.843334   5.005170   3.698060   3.185587   1.779417
    22  H    4.447009   3.822215   2.490183   2.539034   1.781386
    23  H    7.483172   6.332683   5.199116   4.102371   2.745354
    24  H    9.005305   7.713722   6.849779   5.572301   5.081629
    25  H    6.754628   5.450310   5.354875   4.239162   6.176093
    26  H    3.881870   3.412624   4.566086   4.703444   7.813086
    27  H    3.352221   3.816485   5.164149   5.875125   8.782726
    28  H    2.020870   3.234538   4.311039   5.441959   7.807998
                   21         22         23         24         25
    21  H    0.000000
    22  H    1.781398   0.000000
    23  H    2.743267   3.994753   0.000000
    24  H    5.078728   6.258508   2.469436   0.000000
    25  H    6.173510   6.449276   4.991876   4.285460   0.000000
    26  H    7.812588   7.000450   8.321669   8.809256   5.030653
    27  H    8.783237   7.604045   9.907124  10.830935   7.402972
    28  H    7.809516   6.368321   9.499621  10.946207   8.309099
                   26         27         28
    26  H    0.000000
    27  H    2.514058   0.000000
    28  H    4.298137   2.490117   0.000000
 Stoichiometry    C14H9ClN4
 Framework group  C1[X(C14H9ClN4)]
 Deg. of freedom    78
 Full point group                 C1      NOp   1
 Largest Abelian subgroup         C1      NOp   1
 Largest concise Abelian subgroup C1      NOp   1
                         Standard orientation:                         
 ---------------------------------------------------------------------
 Center     Atomic      Atomic             Coordinates (Angstroms)
 Number     Number       Type             X           Y           Z
 ---------------------------------------------------------------------
      1          6           0        0.143427    3.360970    0.001135
      2          7           0        0.263400    1.929380   -0.000728
      3          6           0        1.436267    1.202533   -0.000214
      4          6           0        2.746260    1.656049   -0.000538
      5          6           0        3.760592    0.715872   -0.000370
      6          6           0        3.472238   -0.647805    0.000013
      7         17           0        4.785574   -1.774501    0.000131
      8          6           0        2.172788   -1.121424    0.000240
      9          6           0        1.150014   -0.184745    0.000102
     10          6           0       -0.281908   -0.294063    0.000053
     11          7           0       -1.083914   -1.324532    0.000109
     12          6           0       -2.402660   -1.025723    0.000042
     13          6           0       -3.350229   -2.068027    0.000141
     14          6           0       -4.680972   -1.749230    0.000057
     15          6           0       -5.049108   -0.391085   -0.000070
     16          7           0       -4.203988    0.601154   -0.000143
     17          6           0       -2.889985    0.323624   -0.000145
     18          7           0       -2.050231    1.380025   -0.000371
     19          6           0       -0.781374    1.062957   -0.000234
     20          1           0        0.611845    3.786441   -0.888781
     21          1           0        0.614602    3.784276    0.890633
     22          1           0       -0.918694    3.598273    0.003060
     23          1           0        2.975978    2.709698   -0.000825
     24          1           0        4.790857    1.035084   -0.000612
     25          1           0        1.953194   -2.176276    0.000559
     26          1           0       -2.994261   -3.087406    0.000338
     27          1           0       -5.442068   -2.514057    0.000120
     28          1           0       -6.095174   -0.111114   -0.000083
 ---------------------------------------------------------------------
 Rotational constants (GHZ):           0.8137877           0.1925745           0.1558773
 Leave Link  202 at Sun Jan 18 23:59:00 2026, MaxMem=  8053063680 cpu:               0.1 elap:               0.0
 (Enter /appl/Gaussian16/AVX_revB01/g16/l301.exe)
 Standard basis: 6-31G(d) (6D, 7F)
 Ernie: Thresh=  0.10000D-02 Tol=  0.10000D-05 Strict=F.
 There are   307 symmetry adapted cartesian basis functions of A   symmetry.
 There are   307 symmetry adapted basis functions of A   symmetry.
   307 basis functions,   592 primitive gaussians,   307 cartesian basis functions
    69 alpha electrons       69 beta electrons
       nuclear repulsion energy      1407.4963408536 Hartrees.
 IExCor=  402 DFT=T Ex+Corr=B3LYP ExCW=0 ScaHFX=  0.200000
 ScaDFX=  0.800000  0.720000  1.000000  0.810000 ScalE2=  1.000000  1.000000
 IRadAn=      5 IRanWt=     -1 IRanGd=            0 ICorTp=0 IEmpDi=  4
 NAtoms=   28 NActive=   28 NUniq=   28 SFac= 1.00D+00 NAtFMM=   60 NAOKFM=F Big=F
 Integral buffers will be    131072 words long.
 Raffenetti 2 integral format.
 Two-electron integral symmetry is turned on.
 Leave Link  301 at Sun Jan 18 23:59:00 2026, MaxMem=  8053063680 cpu:               1.1 elap:               0.2
 (Enter /appl/Gaussian16/AVX_revB01/g16/l302.exe)
 NPDir=0 NMtPBC=     1 NCelOv=     1 NCel=       1 NClECP=     1 NCelD=      1
         NCelK=      1 NCelE2=     1 NClLst=     1 CellRange=     0.0.
 One-electron integrals computed using PRISM.
 One-electron integral symmetry used in STVInt
 NBasis=   307 RedAO= T EigKep=  3.03D-04  NBF=   307
 NBsUse=   307 1.00D-06 EigRej= -1.00D+00 NBFU=   307
 Precomputing XC quadrature grid using
 IXCGrd= 4 IRadAn=           5 IRanWt=          -1 IRanGd=           0 AccXCQ= 0.00D+00.
 Generated NRdTot=       0 NPtTot=           0 NUsed=           0 NTot=          32
 NSgBfM=   305   305   305   305   305 MxSgAt=    28 MxSgA2=    28.
 Leave Link  302 at Sun Jan 18 23:59:01 2026, MaxMem=  8053063680 cpu:               3.5 elap:               0.2
 (Enter /appl/Gaussian16/AVX_revB01/g16/l303.exe)
 DipDrv:  MaxL=1.
 Leave Link  303 at Sun Jan 18 23:59:01 2026, MaxMem=  8053063680 cpu:               0.6 elap:               0.0
 (Enter /appl/Gaussian16/AVX_revB01/g16/l401.exe)
 ExpMin= 1.43D-01 ExpMax= 2.52D+04 ExpMxC= 3.78D+03 IAcc=3 IRadAn=         5 AccDes= 0.00D+00
 Harris functional with IExCor=  402 and IRadAn=       5 diagonalized for initial guess.
 HarFok:  IExCor=  402 AccDes= 0.00D+00 IRadAn=         5 IDoV= 1 UseB2=F ITyADJ=14
 ICtDFT=  3500011 ScaDFX=  1.000000  1.000000  1.000000  1.000000
 FoFCou: FMM=F IPFlag=           0 FMFlag=      100000 FMFlg1=           0
         NFxFlg=           0 DoJE=T BraDBF=F KetDBF=T FulRan=T
         wScrn=  0.000000 ICntrl=       500 IOpCl=  0 I1Cent=   200000004 NGrid=           0
         NMat0=    1 NMatS0=      1 NMatT0=    0 NMatD0=    1 NMtDS0=    0 NMtDT0=    0
 Petite list used in FoFCou.
 Harris En= -1217.98820268724    
 JPrj=0 DoOrth=F DoCkMO=F.
 Leave Link  401 at Sun Jan 18 23:59:02 2026, MaxMem=  8053063680 cpu:              13.7 elap:               0.9
 (Enter /appl/Gaussian16/AVX_revB01/g16/l502.exe)
 Integral symmetry usage will be decided dynamically.
 Closed shell SCF:
 Using DIIS extrapolation, IDIIS=  1040.
 NGot=  8053063680 LenX=  8052866992 LenY=  8052772302
 Requested convergence on RMS density matrix=1.00D-08 within  32 cycles.
 Requested convergence on MAX density matrix=1.00D-06.
 Requested convergence on             energy=1.00D-06.
 No special actions if energy rises.
 Fock matrices will be formed incrementally for  20 cycles.
 Integral accuracy reduced to 1.0D-05 until final iterations.

 Cycle   1  Pass 0  IDiag  1:
 FoFJK:  IHMeth= 1 ICntrl=       0 DoSepK=F KAlg= 0 I1Cent=           0 FoldK=F
 IRaf= 800000000 NMat=       1 IRICut=       1 DoRegI=T DoRafI=F ISym2E= 0 IDoP0=0 IntGTp=1.
 FoFCou: FMM=F IPFlag=           0 FMFlag=      100000 FMFlg1=           0
         NFxFlg=           0 DoJE=F BraDBF=F KetDBF=F FulRan=T
         wScrn=  0.000000 ICntrl=         0 IOpCl=  0 I1Cent=           0 NGrid=           0
         NMat0=    1 NMatS0=      1 NMatT0=    0 NMatD0=    1 NMtDS0=    0 NMtDT0=    0
 Symmetry not used in FoFCou.
 E= -1217.81245759715    
 DIIS: error= 4.19D-02 at cycle   1 NSaved=   1.
 NSaved= 1 IEnMin= 1 EnMin= -1217.81245759715     IErMin= 1 ErrMin= 4.19D-02
 ErrMax= 4.19D-02  0.00D+00 EMaxC= 1.00D-01 BMatC= 3.29D-01 BMatP= 3.29D-01
 IDIUse=3 WtCom= 5.81D-01 WtEn= 4.19D-01
 Coeff-Com:  0.100D+01
 Coeff-En:   0.100D+01
 Coeff:      0.100D+01
 Gap=     0.235 Goal=   None    Shift=    0.000
 GapD=    0.235 DampG=1.000 DampE=0.500 DampFc=0.5000 IDamp=-1.
 Damping current iteration by 5.00D-01
 RMSDP=5.04D-03 MaxDP=1.49D-01              OVMax= 2.15D-01

 Cycle   2  Pass 0  IDiag  1:
 RMSU=  2.45D-03    CP:  9.73D-01
 E= -1217.95211976736     Delta-E=       -0.139662170206 Rises=F Damp=T
 DIIS: error= 9.04D-03 at cycle   2 NSaved=   2.
 NSaved= 2 IEnMin= 2 EnMin= -1217.95211976736     IErMin= 2 ErrMin= 9.04D-03
 ErrMax= 9.04D-03  0.00D+00 EMaxC= 1.00D-01 BMatC= 3.14D-02 BMatP= 3.29D-01
 IDIUse=3 WtCom= 9.10D-01 WtEn= 9.04D-02
 Coeff-Com:  0.638D-01 0.936D+00
 Coeff-En:   0.120D+00 0.880D+00
 Coeff:      0.689D-01 0.931D+00
 Gap=     0.179 Goal=   None    Shift=    0.000
 RMSDP=1.67D-03 MaxDP=5.99D-02 DE=-1.40D-01 OVMax= 1.50D-01

 Cycle   3  Pass 0  IDiag  1:
 RMSU=  1.62D-03    CP:  9.56D-01  9.79D-01
 E= -1218.10759240239     Delta-E=       -0.155472635038 Rises=F Damp=F
 DIIS: error= 9.78D-03 at cycle   3 NSaved=   3.
 NSaved= 3 IEnMin= 3 EnMin= -1218.10759240239     IErMin= 2 ErrMin= 9.04D-03
 ErrMax= 9.78D-03  0.00D+00 EMaxC= 1.00D-01 BMatC= 2.92D-02 BMatP= 3.14D-02
 IDIUse=3 WtCom= 9.02D-01 WtEn= 9.78D-02
 Coeff-Com: -0.391D-01 0.503D+00 0.537D+00
 Coeff-En:   0.000D+00 0.000D+00 0.100D+01
 Coeff:     -0.353D-01 0.453D+00 0.582D+00
 Gap=     0.144 Goal=   None    Shift=    0.000
 RMSDP=1.06D-03 MaxDP=3.71D-02 DE=-1.55D-01 OVMax= 8.71D-02

 Cycle   4  Pass 0  IDiag  1:
 RMSU=  8.52D-04    CP:  9.58D-01  1.06D+00  6.29D-01
 E= -1218.12547627177     Delta-E=       -0.017883869376 Rises=F Damp=F
 DIIS: error= 7.08D-03 at cycle   4 NSaved=   4.
 NSaved= 4 IEnMin= 4 EnMin= -1218.12547627177     IErMin= 4 ErrMin= 7.08D-03
 ErrMax= 7.08D-03  0.00D+00 EMaxC= 1.00D-01 BMatC= 1.10D-02 BMatP= 2.92D-02
 IDIUse=3 WtCom= 9.29D-01 WtEn= 7.08D-02
 Coeff-Com: -0.245D-01 0.142D+00 0.396D+00 0.487D+00
 Coeff-En:   0.000D+00 0.000D+00 0.327D+00 0.673D+00
 Coeff:     -0.227D-01 0.132D+00 0.391D+00 0.500D+00
 Gap=     0.137 Goal=   None    Shift=    0.000
 RMSDP=5.10D-04 MaxDP=1.58D-02 DE=-1.79D-02 OVMax= 4.53D-02

 Cycle   5  Pass 0  IDiag  1:
 RMSU=  2.34D-04    CP:  9.58D-01  1.04D+00  7.35D-01  5.15D-01
 E= -1218.13685719518     Delta-E=       -0.011380923414 Rises=F Damp=F
 DIIS: error= 1.48D-03 at cycle   5 NSaved=   5.
 NSaved= 5 IEnMin= 5 EnMin= -1218.13685719518     IErMin= 5 ErrMin= 1.48D-03
 ErrMax= 1.48D-03  0.00D+00 EMaxC= 1.00D-01 BMatC= 9.42D-04 BMatP= 1.10D-02
 IDIUse=3 WtCom= 9.85D-01 WtEn= 1.48D-02
 Coeff-Com: -0.950D-02 0.340D-01 0.188D+00 0.317D+00 0.471D+00
 Coeff-En:   0.000D+00 0.000D+00 0.000D+00 0.329D-01 0.967D+00
 Coeff:     -0.936D-02 0.335D-01 0.185D+00 0.313D+00 0.478D+00
 Gap=     0.137 Goal=   None    Shift=    0.000
 RMSDP=1.44D-04 MaxDP=4.30D-03 DE=-1.14D-02 OVMax= 1.21D-02

 Cycle   6  Pass 0  IDiag  1:
 RMSU=  6.94D-05    CP:  9.58D-01  1.04D+00  7.44D-01  5.51D-01  4.88D-01
 E= -1218.13784720468     Delta-E=       -0.000990009498 Rises=F Damp=F
 DIIS: error= 3.09D-04 at cycle   6 NSaved=   6.
 NSaved= 6 IEnMin= 6 EnMin= -1218.13784720468     IErMin= 6 ErrMin= 3.09D-04
 ErrMax= 3.09D-04  0.00D+00 EMaxC= 1.00D-01 BMatC= 4.52D-05 BMatP= 9.42D-04
 IDIUse=3 WtCom= 9.97D-01 WtEn= 3.09D-03
 Coeff-Com: -0.239D-02 0.455D-02 0.588D-01 0.115D+00 0.247D+00 0.576D+00
 Coeff-En:   0.000D+00 0.000D+00 0.000D+00 0.000D+00 0.000D+00 0.100D+01
 Coeff:     -0.238D-02 0.453D-02 0.586D-01 0.115D+00 0.247D+00 0.578D+00
 Gap=     0.137 Goal=   None    Shift=    0.000
 RMSDP=3.48D-05 MaxDP=1.45D-03 DE=-9.90D-04 OVMax= 2.48D-03

 Cycle   7  Pass 0  IDiag  1:
 RMSU=  2.15D-05    CP:  9.58D-01  1.04D+00  7.44D-01  5.62D-01  5.43D-01
                    CP:  6.74D-01
 E= -1218.13788667376     Delta-E=       -0.000039469075 Rises=F Damp=F
 DIIS: error= 1.58D-04 at cycle   7 NSaved=   7.
 NSaved= 7 IEnMin= 7 EnMin= -1218.13788667376     IErMin= 7 ErrMin= 1.58D-04
 ErrMax= 1.58D-04  0.00D+00 EMaxC= 1.00D-01 BMatC= 7.58D-06 BMatP= 4.52D-05
 IDIUse=3 WtCom= 9.98D-01 WtEn= 1.58D-03
 Coeff-Com: -0.681D-03-0.812D-05 0.211D-01 0.451D-01 0.114D+00 0.356D+00
 Coeff-Com:  0.464D+00
 Coeff-En:   0.000D+00 0.000D+00 0.000D+00 0.000D+00 0.000D+00 0.991D-01
 Coeff-En:   0.901D+00
 Coeff:     -0.680D-03-0.811D-05 0.211D-01 0.450D-01 0.114D+00 0.356D+00
 Coeff:      0.465D+00
 Gap=     0.137 Goal=   None    Shift=    0.000
 RMSDP=1.20D-05 MaxDP=5.50D-04 DE=-3.95D-05 OVMax= 9.99D-04

 Cycle   8  Pass 0  IDiag  1:
 RMSU=  6.29D-06    CP:  9.58D-01  1.04D+00  7.45D-01  5.62D-01  5.43D-01
                    CP:  7.13D-01  5.52D-01
 E= -1218.13789423763     Delta-E=       -0.000007563874 Rises=F Damp=F
 DIIS: error= 4.10D-05 at cycle   8 NSaved=   8.
 NSaved= 8 IEnMin= 8 EnMin= -1218.13789423763     IErMin= 8 ErrMin= 4.10D-05
 ErrMax= 4.10D-05  0.00D+00 EMaxC= 1.00D-01 BMatC= 5.78D-07 BMatP= 7.58D-06
 IDIUse=1 WtCom= 1.00D+00 WtEn= 0.00D+00
 Coeff-Com: -0.252D-04-0.665D-03 0.427D-02 0.965D-02 0.310D-01 0.122D+00
 Coeff-Com:  0.255D+00 0.579D+00
 Coeff:     -0.252D-04-0.665D-03 0.427D-02 0.965D-02 0.310D-01 0.122D+00
 Coeff:      0.255D+00 0.579D+00
 Gap=     0.137 Goal=   None    Shift=    0.000
 RMSDP=3.81D-06 MaxDP=1.59D-04 DE=-7.56D-06 OVMax= 2.86D-04

 Initial convergence to 1.0D-05 achieved.  Increase integral accuracy.
 Cycle   9  Pass 1  IDiag  1:
 E= -1218.13788744498     Delta-E=        0.000006792653 Rises=F Damp=F
 DIIS: error= 9.53D-05 at cycle   1 NSaved=   1.
 NSaved= 1 IEnMin= 1 EnMin= -1218.13788744498     IErMin= 1 ErrMin= 9.53D-05
 ErrMax= 9.53D-05  0.00D+00 EMaxC= 1.00D-01 BMatC= 6.92D-07 BMatP= 6.92D-07
 IDIUse=1 WtCom= 1.00D+00 WtEn= 0.00D+00
 Coeff-Com:  0.100D+01
 Coeff:      0.100D+01
 Gap=     0.137 Goal=   None    Shift=    0.000
 RMSDP=3.81D-06 MaxDP=1.59D-04 DE= 6.79D-06 OVMax= 3.57D-04

 Cycle  10  Pass 1  IDiag  1:
 RMSU=  5.00D-05    CP:  1.00D+00
 E= -1218.13788747540     Delta-E=       -0.000000030422 Rises=F Damp=F
 DIIS: error= 4.65D-05 at cycle   2 NSaved=   2.
 NSaved= 2 IEnMin= 2 EnMin= -1218.13788747540     IErMin= 2 ErrMin= 4.65D-05
 ErrMax= 4.65D-05  0.00D+00 EMaxC= 1.00D-01 BMatC= 5.79D-07 BMatP= 6.92D-07
 IDIUse=1 WtCom= 1.00D+00 WtEn= 0.00D+00
 Coeff-Com:  0.468D+00 0.532D+00
 Coeff:      0.468D+00 0.532D+00
 Gap=     0.137 Goal=   None    Shift=    0.000
 RMSDP=5.05D-06 MaxDP=2.19D-04 DE=-3.04D-08 OVMax= 4.10D-04

 Cycle  11  Pass 1  IDiag  1:
 RMSU=  5.03D-06    CP:  1.00D+00  9.91D-01
 E= -1218.13788771691     Delta-E=       -0.000000241509 Rises=F Damp=F
 DIIS: error= 3.71D-05 at cycle   3 NSaved=   3.
 NSaved= 3 IEnMin= 3 EnMin= -1218.13788771691     IErMin= 3 ErrMin= 3.71D-05
 ErrMax= 3.71D-05  0.00D+00 EMaxC= 1.00D-01 BMatC= 3.42D-07 BMatP= 5.79D-07
 IDIUse=1 WtCom= 1.00D+00 WtEn= 0.00D+00
 Coeff-Com:  0.139D-01 0.431D+00 0.555D+00
 Coeff:      0.139D-01 0.431D+00 0.555D+00
 Gap=     0.137 Goal=   None    Shift=    0.000
 RMSDP=2.47D-06 MaxDP=1.17D-04 DE=-2.42D-07 OVMax= 2.11D-04

 Cycle  12  Pass 1  IDiag  1:
 RMSU=  6.33D-07    CP:  1.00D+00  1.00D+00  5.46D-01
 E= -1218.13788806544     Delta-E=       -0.000000348528 Rises=F Damp=F
 DIIS: error= 4.81D-06 at cycle   4 NSaved=   4.
 NSaved= 4 IEnMin= 4 EnMin= -1218.13788806544     IErMin= 4 ErrMin= 4.81D-06
 ErrMax= 4.81D-06  0.00D+00 EMaxC= 1.00D-01 BMatC= 9.91D-09 BMatP= 3.42D-07
 IDIUse=1 WtCom= 1.00D+00 WtEn= 0.00D+00
 Coeff-Com: -0.323D-02 0.249D+00 0.339D+00 0.415D+00
 Coeff:     -0.323D-02 0.249D+00 0.339D+00 0.415D+00
 Gap=     0.137 Goal=   None    Shift=    0.000
 RMSDP=3.79D-07 MaxDP=1.48D-05 DE=-3.49D-07 OVMax= 2.66D-05

 Cycle  13  Pass 1  IDiag  1:
 RMSU=  1.35D-07    CP:  1.00D+00  1.00D+00  5.66D-01  4.65D-01
 E= -1218.13788807485     Delta-E=       -0.000000009416 Rises=F Damp=F
 DIIS: error= 6.21D-07 at cycle   5 NSaved=   5.
 NSaved= 5 IEnMin= 5 EnMin= -1218.13788807485     IErMin= 5 ErrMin= 6.21D-07
 ErrMax= 6.21D-07  0.00D+00 EMaxC= 1.00D-01 BMatC= 2.07D-10 BMatP= 9.91D-09
 IDIUse=1 WtCom= 1.00D+00 WtEn= 0.00D+00
 Coeff-Com: -0.221D-02 0.134D+00 0.183D+00 0.240D+00 0.446D+00
 Coeff:     -0.221D-02 0.134D+00 0.183D+00 0.240D+00 0.446D+00
 Gap=     0.137 Goal=   None    Shift=    0.000
 RMSDP=6.74D-08 MaxDP=2.77D-06 DE=-9.42D-09 OVMax= 5.54D-06

 Cycle  14  Pass 1  IDiag  1:
 RMSU=  5.12D-08    CP:  1.00D+00  1.00D+00  5.65D-01  4.85D-01  6.95D-01
 E= -1218.13788807504     Delta-E=       -0.000000000191 Rises=F Damp=F
 DIIS: error= 1.89D-07 at cycle   6 NSaved=   6.
 NSaved= 6 IEnMin= 6 EnMin= -1218.13788807504     IErMin= 6 ErrMin= 1.89D-07
 ErrMax= 1.89D-07  0.00D+00 EMaxC= 1.00D-01 BMatC= 1.77D-11 BMatP= 2.07D-10
 IDIUse=1 WtCom= 1.00D+00 WtEn= 0.00D+00
 Coeff-Com: -0.995D-03 0.546D-01 0.749D-01 0.100D+00 0.269D+00 0.502D+00
 Coeff:     -0.995D-03 0.546D-01 0.749D-01 0.100D+00 0.269D+00 0.502D+00
 Gap=     0.137 Goal=   None    Shift=    0.000
 RMSDP=2.09D-08 MaxDP=6.07D-07 DE=-1.91D-10 OVMax= 1.70D-06

 Cycle  15  Pass 1  IDiag  1:
 RMSU=  1.72D-08    CP:  1.00D+00  1.00D+00  5.65D-01  4.82D-01  7.32D-01
                    CP:  7.92D-01
 E= -1218.13788807508     Delta-E=       -0.000000000037 Rises=F Damp=F
 DIIS: error= 1.10D-07 at cycle   7 NSaved=   7.
 NSaved= 7 IEnMin= 7 EnMin= -1218.13788807508     IErMin= 7 ErrMin= 1.10D-07
 ErrMax= 1.10D-07  0.00D+00 EMaxC= 1.00D-01 BMatC= 2.22D-12 BMatP= 1.77D-11
 IDIUse=1 WtCom= 1.00D+00 WtEn= 0.00D+00
 Coeff-Com: -0.164D-03 0.680D-02 0.956D-02 0.132D-01 0.790D-01 0.280D+00
 Coeff-Com:  0.611D+00
 Coeff:     -0.164D-03 0.680D-02 0.956D-02 0.132D-01 0.790D-01 0.280D+00
 Coeff:      0.611D+00
 Gap=     0.137 Goal=   None    Shift=    0.000
 RMSDP=8.36D-09 MaxDP=3.96D-07 DE=-3.68D-11 OVMax= 1.05D-06

 SCF Done:  E(RB3LYP) =  -1218.13788808     A.U. after   15 cycles
            NFock= 15  Conv=0.84D-08     -V/T= 2.0065
 KE= 1.210294281125D+03 PE=-5.667250015573D+03 EE= 1.831321505519D+03
 Leave Link  502 at Sun Jan 18 23:59:18 2026, MaxMem=  8053063680 cpu:             256.6 elap:              16.1
 (Enter /appl/Gaussian16/AVX_revB01/g16/l508.exe)
 QCSCF skips out because SCF is already converged.
 Leave Link  508 at Sun Jan 18 23:59:19 2026, MaxMem=  8053063680 cpu:               0.0 elap:               0.0
 (Enter /appl/Gaussian16/AVX_revB01/g16/l601.exe)
 Copying SCF densities to generalized density rwf, IOpCl= 0 IROHF=0.

 **********************************************************************

            Population analysis using the SCF Density.

 **********************************************************************

 Orbital symmetries:
       Occupied  (A) (A) (A) (A) (A) (A) (A) (A) (A) (A) (A) (A)
                 (A) (A) (A) (A) (A) (A) (A) (A) (A) (A) (A) (A)
                 (A) (A) (A) (A) (A) (A) (A) (A) (A) (A) (A) (A)
                 (A) (A) (A) (A) (A) (A) (A) (A) (A) (A) (A) (A)
                 (A) (A) (A) (A) (A) (A) (A) (A) (A) (A) (A) (A)
                 (A) (A) (A) (A) (A) (A) (A) (A) (A)
       Virtual   (A) (A) (A) (A) (A) (A) (A) (A) (A) (A) (A) (A)
                 (A) (A) (A) (A) (A) (A) (A) (A) (A) (A) (A) (A)
                 (A) (A) (A) (A) (A) (A) (A) (A) (A) (A) (A) (A)
                 (A) (A) (A) (A) (A) (A) (A) (A) (A) (A) (A) (A)
                 (A) (A) (A) (A) (A) (A) (A) (A) (A) (A) (A) (A)
                 (A) (A) (A) (A) (A) (A) (A) (A) (A) (A) (A) (A)
                 (A) (A) (A) (A) (A) (A) (A) (A) (A) (A) (A) (A)
                 (A) (A) (A) (A) (A) (A) (A) (A) (A) (A) (A) (A)
                 (A) (A) (A) (A) (A) (A) (A) (A) (A) (A) (A) (A)
                 (A) (A) (A) (A) (A) (A) (A) (A) (A) (A) (A) (A)
                 (A) (A) (A) (A) (A) (A) (A) (A) (A) (A) (A) (A)
                 (A) (A) (A) (A) (A) (A) (A) (A) (A) (A) (A) (A)
                 (A) (A) (A) (A) (A) (A) (A) (A) (A) (A) (A) (A)
                 (A) (A) (A) (A) (A) (A) (A) (A) (A) (A) (A) (A)
                 (A) (A) (A) (A) (A) (A) (A) (A) (A) (A) (A) (A)
                 (A) (A) (A) (A) (A) (A) (A) (A) (A) (A) (A) (A)
                 (A) (A) (A) (A) (A) (A) (A) (A) (A) (A) (A) (A)
                 (A) (A) (A) (A) (A) (A) (A) (A) (A) (A) (A) (A)
                 (A) (A) (A) (A) (A) (A) (A) (A) (A) (A) (A) (A)
                 (A) (A) (A) (A) (A) (A) (A) (A) (A) (A)
 The electronic state is 1-A.
 Alpha  occ. eigenvalues -- -101.54963 -14.39867 -14.35107 -14.34106 -14.32581
 Alpha  occ. eigenvalues --  -10.27003 -10.25656 -10.25269 -10.24674 -10.24056
 Alpha  occ. eigenvalues --  -10.23651 -10.23259 -10.22792 -10.21342 -10.21200
 Alpha  occ. eigenvalues --  -10.21181 -10.20950 -10.20848 -10.20045  -9.46642
 Alpha  occ. eigenvalues --   -7.23032  -7.22063  -7.22038  -1.03402  -0.98533
 Alpha  occ. eigenvalues --   -0.94406  -0.91659  -0.89851  -0.84799  -0.81626
 Alpha  occ. eigenvalues --   -0.79855  -0.76496  -0.75642  -0.72089  -0.68637
 Alpha  occ. eigenvalues --   -0.65680  -0.63187  -0.61542  -0.59902  -0.57636
 Alpha  occ. eigenvalues --   -0.55938  -0.52036  -0.51635  -0.49562  -0.49380
 Alpha  occ. eigenvalues --   -0.48281  -0.47435  -0.46315  -0.45917  -0.44724
 Alpha  occ. eigenvalues --   -0.44428  -0.41913  -0.41577  -0.41251  -0.39467
 Alpha  occ. eigenvalues --   -0.39038  -0.38735  -0.36991  -0.36584  -0.34811
 Alpha  occ. eigenvalues --   -0.31852  -0.31536  -0.30855  -0.29502  -0.27890
 Alpha  occ. eigenvalues --   -0.26755  -0.24067  -0.23944  -0.22033
 Alpha virt. eigenvalues --   -0.08354  -0.03053  -0.00476   0.00068   0.01459
 Alpha virt. eigenvalues --    0.03645   0.09157   0.09684   0.10588   0.11902
 Alpha virt. eigenvalues --    0.14294   0.14505   0.14615   0.15894   0.16337
 Alpha virt. eigenvalues --    0.16946   0.17666   0.17956   0.19672   0.21012
 Alpha virt. eigenvalues --    0.21460   0.24250   0.24801   0.25833   0.26890
 Alpha virt. eigenvalues --    0.28870   0.29601   0.31435   0.32822   0.35179
 Alpha virt. eigenvalues --    0.35620   0.37658   0.38462   0.39954   0.40967
 Alpha virt. eigenvalues --    0.42230   0.43107   0.43897   0.44067   0.46124
 Alpha virt. eigenvalues --    0.47903   0.48040   0.49835   0.50522   0.50598
 Alpha virt. eigenvalues --    0.52395   0.52968   0.54109   0.54221   0.54235
 Alpha virt. eigenvalues --    0.56760   0.56886   0.58454   0.58518   0.58927
 Alpha virt. eigenvalues --    0.59146   0.59602   0.60261   0.60270   0.62695
 Alpha virt. eigenvalues --    0.63560   0.63924   0.64902   0.65251   0.65913
 Alpha virt. eigenvalues --    0.67268   0.68267   0.69469   0.70290   0.71926
 Alpha virt. eigenvalues --    0.73074   0.73142   0.75634   0.78764   0.78975
 Alpha virt. eigenvalues --    0.79260   0.80735   0.81957   0.82122   0.82420
 Alpha virt. eigenvalues --    0.83546   0.84213   0.84563   0.85092   0.86767
 Alpha virt. eigenvalues --    0.87295   0.87756   0.87966   0.89295   0.90384
 Alpha virt. eigenvalues --    0.90478   0.92315   0.94025   0.94320   0.94752
 Alpha virt. eigenvalues --    0.95093   0.95394   0.96789   0.97780   0.99506
 Alpha virt. eigenvalues --    1.00976   1.03688   1.05044   1.08491   1.09265
 Alpha virt. eigenvalues --    1.12127   1.14028   1.14231   1.15870   1.18286
 Alpha virt. eigenvalues --    1.19209   1.19428   1.23542   1.23986   1.25435
 Alpha virt. eigenvalues --    1.27487   1.29379   1.29839   1.31850   1.32022
 Alpha virt. eigenvalues --    1.33331   1.35647   1.37906   1.39029   1.40045
 Alpha virt. eigenvalues --    1.41111   1.43553   1.43759   1.46076   1.46643
 Alpha virt. eigenvalues --    1.48330   1.49184   1.50108   1.51065   1.51921
 Alpha virt. eigenvalues --    1.54977   1.59564   1.64135   1.65670   1.68219
 Alpha virt. eigenvalues --    1.71021   1.72187   1.75009   1.76466   1.78540
 Alpha virt. eigenvalues --    1.79580   1.80160   1.81378   1.82836   1.84801
 Alpha virt. eigenvalues --    1.86005   1.86129   1.87921   1.90918   1.91738
 Alpha virt. eigenvalues --    1.93928   1.95579   1.96599   1.99312   2.01387
 Alpha virt. eigenvalues --    2.02763   2.03240   2.04518   2.05845   2.09997
 Alpha virt. eigenvalues --    2.12035   2.12885   2.13553   2.15135   2.16975
 Alpha virt. eigenvalues --    2.19022   2.19229   2.21323   2.22309   2.22394
 Alpha virt. eigenvalues --    2.24913   2.25798   2.27062   2.27990   2.33057
 Alpha virt. eigenvalues --    2.33655   2.34527   2.36428   2.38517   2.38984
 Alpha virt. eigenvalues --    2.42412   2.43590   2.45015   2.49253   2.52916
 Alpha virt. eigenvalues --    2.52969   2.53624   2.61093   2.61609   2.62258
 Alpha virt. eigenvalues --    2.63062   2.66136   2.66925   2.67952   2.68605
 Alpha virt. eigenvalues --    2.68776   2.72031   2.74284   2.76627   2.78306
 Alpha virt. eigenvalues --    2.80892   2.82554   2.84742   2.87391   2.91411
 Alpha virt. eigenvalues --    2.98499   3.01562   3.05203   3.08876   3.26304
 Alpha virt. eigenvalues --    3.28904   3.38749   3.49252   3.56415   4.03922
 Alpha virt. eigenvalues --    4.05641   4.06712   4.08633   4.11030   4.15180
 Alpha virt. eigenvalues --    4.17411   4.20947   4.26467   4.28021   4.31553
 Alpha virt. eigenvalues --    4.38491   4.43544   4.44993   4.54391   4.65304
 Alpha virt. eigenvalues --    4.69819   4.78794   4.87637
          Condensed to atoms (all electrons):
               1          2          3          4          5          6
     1  C    5.005691   0.292299  -0.046059  -0.003263  -0.000154   0.000012
     2  N    0.292299   7.146526   0.279954  -0.098758   0.006211  -0.000308
     3  C   -0.046059   0.279954   4.708614   0.480880   0.003001  -0.038089
     4  C   -0.003263  -0.098758   0.480880   5.085763   0.497462  -0.022120
     5  C   -0.000154   0.006211   0.003001   0.497462   4.925418   0.515956
     6  C    0.000012  -0.000308  -0.038089  -0.022120   0.515956   5.005270
     7  Cl   0.000000   0.000005   0.000942   0.004793  -0.067479   0.232582
     8  C   -0.000067   0.010672  -0.078802  -0.055418  -0.033147   0.459137
     9  C    0.005046  -0.030971   0.450427  -0.053056  -0.037491   0.010652
    10  C    0.007062  -0.086793   0.030128   0.016525   0.000195   0.009273
    11  N   -0.000110   0.006681   0.008964  -0.000130   0.000008   0.000221
    12  C   -0.000022   0.001191   0.000108   0.000008   0.000000   0.000005
    13  C    0.000000   0.000012   0.000008  -0.000000  -0.000000  -0.000000
    14  C   -0.000000   0.000000  -0.000000   0.000000   0.000000   0.000000
    15  C    0.000000   0.000000  -0.000000   0.000000   0.000000  -0.000000
    16  N    0.000006  -0.000046  -0.000002  -0.000000   0.000000  -0.000000
    17  C    0.000103   0.002134  -0.000278  -0.000003   0.000000   0.000000
    18  N   -0.007993  -0.082518  -0.000297  -0.000218   0.000002  -0.000000
    19  C   -0.038125   0.284766  -0.100433   0.002110  -0.000109  -0.000398
    20  H    0.375613  -0.041899  -0.000661   0.002728   0.000000  -0.000002
    21  H    0.375561  -0.041910  -0.000657   0.002744   0.000000  -0.000002
    22  H    0.375379  -0.033920   0.002021   0.000073   0.000002  -0.000000
    23  H    0.004766  -0.008440  -0.034165   0.352346  -0.041554   0.004298
    24  H   -0.000002  -0.000104   0.002749  -0.035226   0.361575  -0.040289
    25  H    0.000003  -0.000092   0.004618   0.000270   0.004294  -0.047935
    26  H    0.000000  -0.000000  -0.000000  -0.000000   0.000000   0.000000
    27  H   -0.000000  -0.000000   0.000000   0.000000  -0.000000  -0.000000
    28  H    0.000000  -0.000000  -0.000000  -0.000000   0.000000  -0.000000
               7          8          9         10         11         12
     1  C    0.000000  -0.000067   0.005046   0.007062  -0.000110  -0.000022
     2  N    0.000005   0.010672  -0.030971  -0.086793   0.006681   0.001191
     3  C    0.000942  -0.078802   0.450427   0.030128   0.008964   0.000108
     4  C    0.004793  -0.055418  -0.053056   0.016525  -0.000130   0.000008
     5  C   -0.067479  -0.033147  -0.037491   0.000195   0.000008   0.000000
     6  C    0.232582   0.459137   0.010652   0.009273   0.000221   0.000005
     7  Cl  16.912935  -0.069234   0.003305  -0.000149   0.000002  -0.000000
     8  C   -0.069234   5.221838   0.451570  -0.111317  -0.005587  -0.000035
     9  C    0.003305   0.451570   4.989165   0.225978  -0.092668   0.000156
    10  C   -0.000149  -0.111317   0.225978   5.094836   0.470228  -0.047422
    11  N    0.000002  -0.005587  -0.092668   0.470228   7.048036   0.377820
    12  C   -0.000000  -0.000035   0.000156  -0.047422   0.377820   4.776317
    13  C    0.000000  -0.000003  -0.000660  -0.000842  -0.070699   0.480211
    14  C   -0.000000  -0.000000   0.000007  -0.000137   0.005846  -0.007431
    15  C    0.000000   0.000000  -0.000000   0.000122  -0.000079  -0.029276
    16  N   -0.000000  -0.000000   0.000027   0.000506   0.006145  -0.069979
    17  C   -0.000000   0.000007   0.004660  -0.027061  -0.061021   0.379964
    18  N   -0.000000  -0.000091   0.009207  -0.059143  -0.019377  -0.105015
    19  C    0.000003   0.018946  -0.015634   0.271936  -0.101224  -0.007787
    20  H    0.000000  -0.000009  -0.000154  -0.000028   0.000002   0.000001
    21  H    0.000000  -0.000009  -0.000153  -0.000026   0.000002   0.000001
    22  H    0.000000   0.000009  -0.000033   0.000446  -0.000015   0.000049
    23  H   -0.000160   0.000693   0.004511  -0.000326   0.000001  -0.000000
    24  H   -0.000278   0.004438   0.000865   0.000008  -0.000000   0.000000
    25  H   -0.000312   0.363722  -0.033949  -0.008968   0.003907  -0.000012
    26  H    0.000000   0.000006  -0.000012   0.000680  -0.000154  -0.034655
    27  H    0.000000  -0.000000  -0.000000  -0.000001  -0.000090   0.004183
    28  H    0.000000  -0.000000   0.000000   0.000002   0.000011   0.000634
              13         14         15         16         17         18
     1  C    0.000000  -0.000000   0.000000   0.000006   0.000103  -0.007993
     2  N    0.000012   0.000000   0.000000  -0.000046   0.002134  -0.082518
     3  C    0.000008  -0.000000  -0.000000  -0.000002  -0.000278  -0.000297
     4  C   -0.000000   0.000000   0.000000  -0.000000  -0.000003  -0.000218
     5  C   -0.000000   0.000000   0.000000   0.000000   0.000000   0.000002
     6  C   -0.000000   0.000000  -0.000000  -0.000000   0.000000  -0.000000
     7  Cl   0.000000  -0.000000   0.000000  -0.000000  -0.000000  -0.000000
     8  C   -0.000003  -0.000000   0.000000  -0.000000   0.000007  -0.000091
     9  C   -0.000660   0.000007  -0.000000   0.000027   0.004660   0.009207
    10  C   -0.000842  -0.000137   0.000122   0.000506  -0.027061  -0.059143
    11  N   -0.070699   0.005846  -0.000079   0.006145  -0.061021  -0.019377
    12  C    0.480211  -0.007431  -0.029276  -0.069979   0.379964  -0.105015
    13  C    5.006893   0.534232  -0.031584  -0.043788  -0.066350   0.004152
    14  C    0.534232   4.994257   0.452579  -0.024472  -0.038565   0.000178
    15  C   -0.031584   0.452579   4.775777   0.493351  -0.054323   0.002768
    16  N   -0.043788  -0.024472   0.493351   6.853662   0.392996  -0.090511
    17  C   -0.066350  -0.038565  -0.054323   0.392996   4.693965   0.402790
    18  N    0.004152   0.000178   0.002768  -0.090511   0.402790   7.046898
    19  C    0.002791   0.000021   0.000029  -0.001243  -0.050559   0.422349
    20  H   -0.000000   0.000000  -0.000000  -0.000000  -0.000001   0.000397
    21  H   -0.000000   0.000000  -0.000000  -0.000000  -0.000001   0.000397
    22  H   -0.000000  -0.000000   0.000001  -0.000047   0.000110   0.018072
    23  H    0.000000  -0.000000   0.000000  -0.000000  -0.000000   0.000002
    24  H   -0.000000   0.000000  -0.000000  -0.000000   0.000000  -0.000000
    25  H   -0.000004   0.000000   0.000000  -0.000000   0.000002   0.000000
    26  H    0.348888  -0.047986   0.005275  -0.000630   0.006161  -0.000150
    27  H   -0.038334   0.351771  -0.036582   0.004858   0.000619   0.000017
    28  H    0.003364  -0.066581   0.379521  -0.055684   0.004582  -0.000099
              19         20         21         22         23         24
     1  C   -0.038125   0.375613   0.375561   0.375379   0.004766  -0.000002
     2  N    0.284766  -0.041899  -0.041910  -0.033920  -0.008440  -0.000104
     3  C   -0.100433  -0.000661  -0.000657   0.002021  -0.034165   0.002749
     4  C    0.002110   0.002728   0.002744   0.000073   0.352346  -0.035226
     5  C   -0.000109   0.000000   0.000000   0.000002  -0.041554   0.361575
     6  C   -0.000398  -0.000002  -0.000002  -0.000000   0.004298  -0.040289
     7  Cl   0.000003   0.000000   0.000000   0.000000  -0.000160  -0.000278
     8  C    0.018946  -0.000009  -0.000009   0.000009   0.000693   0.004438
     9  C   -0.015634  -0.000154  -0.000153  -0.000033   0.004511   0.000865
    10  C    0.271936  -0.000028  -0.000026   0.000446  -0.000326   0.000008
    11  N   -0.101224   0.000002   0.000002  -0.000015   0.000001  -0.000000
    12  C   -0.007787   0.000001   0.000001   0.000049  -0.000000   0.000000
    13  C    0.002791  -0.000000  -0.000000  -0.000000   0.000000  -0.000000
    14  C    0.000021   0.000000   0.000000  -0.000000  -0.000000   0.000000
    15  C    0.000029  -0.000000  -0.000000   0.000001   0.000000  -0.000000
    16  N   -0.001243  -0.000000  -0.000000  -0.000047  -0.000000  -0.000000
    17  C   -0.050559  -0.000001  -0.000001   0.000110  -0.000000   0.000000
    18  N    0.422349   0.000397   0.000397   0.018072   0.000002  -0.000000
    19  C    4.763703   0.001016   0.001011  -0.002495   0.000032   0.000002
    20  H    0.001016   0.554894  -0.041937  -0.022772   0.000659  -0.000000
    21  H    0.001011  -0.041937   0.554915  -0.022725   0.000668  -0.000000
    22  H   -0.002495  -0.022772  -0.022725   0.469361  -0.000050  -0.000000
    23  H    0.000032   0.000659   0.000668  -0.000050   0.577411  -0.005465
    24  H    0.000002  -0.000000  -0.000000  -0.000000  -0.005465   0.554799
    25  H    0.000179  -0.000000  -0.000000  -0.000000   0.000017  -0.000163
    26  H    0.000042  -0.000000  -0.000000   0.000000   0.000000  -0.000000
    27  H   -0.000002   0.000000   0.000000  -0.000000   0.000000  -0.000000
    28  H   -0.000009  -0.000000  -0.000000  -0.000000  -0.000000  -0.000000
              25         26         27         28
     1  C    0.000003   0.000000  -0.000000   0.000000
     2  N   -0.000092  -0.000000  -0.000000  -0.000000
     3  C    0.004618  -0.000000   0.000000  -0.000000
     4  C    0.000270  -0.000000   0.000000  -0.000000
     5  C    0.004294   0.000000  -0.000000   0.000000
     6  C   -0.047935   0.000000  -0.000000  -0.000000
     7  Cl  -0.000312   0.000000   0.000000   0.000000
     8  C    0.363722   0.000006  -0.000000  -0.000000
     9  C   -0.033949  -0.000012  -0.000000   0.000000
    10  C   -0.008968   0.000680  -0.000001   0.000002
    11  N    0.003907  -0.000154  -0.000090   0.000011
    12  C   -0.000012  -0.034655   0.004183   0.000634
    13  C   -0.000004   0.348888  -0.038334   0.003364
    14  C    0.000000  -0.047986   0.351771  -0.066581
    15  C    0.000000   0.005275  -0.036582   0.379521
    16  N   -0.000000  -0.000630   0.004858  -0.055684
    17  C    0.000002   0.006161   0.000619   0.004582
    18  N    0.000000  -0.000150   0.000017  -0.000099
    19  C    0.000179   0.000042  -0.000002  -0.000009
    20  H   -0.000000  -0.000000   0.000000  -0.000000
    21  H   -0.000000  -0.000000   0.000000  -0.000000
    22  H   -0.000000   0.000000  -0.000000  -0.000000
    23  H    0.000017   0.000000   0.000000  -0.000000
    24  H   -0.000163  -0.000000  -0.000000  -0.000000
    25  H    0.541312   0.000006  -0.000000  -0.000000
    26  H    0.000006   0.572986  -0.006175  -0.000171
    27  H   -0.000000  -0.006175   0.580945  -0.001559
    28  H   -0.000000  -0.000171  -0.001559   0.590709
 Mulliken charges:
               1
     1  C   -0.345745
     2  N   -0.604691
     3  C    0.327031
     4  C   -0.177507
     5  C   -0.134189
     6  C   -0.088265
     7  Cl  -0.016953
     8  C   -0.177318
     9  C    0.109203
    10  C    0.214288
    11  N   -0.576719
    12  C    0.280989
    13  C   -0.128287
    14  C   -0.153720
    15  C    0.042419
    16  N   -0.465150
    17  C    0.410069
    18  N   -0.541819
    19  C    0.549083
    20  H    0.172153
    21  H    0.172120
    22  H    0.216536
    23  H    0.144757
    24  H    0.157092
    25  H    0.173105
    26  H    0.155888
    27  H    0.140351
    28  H    0.145280
 Sum of Mulliken charges =  -0.00000
 Mulliken charges with hydrogens summed into heavy atoms:
               1
     1  C    0.215064
     2  N   -0.604691
     3  C    0.327031
     4  C   -0.032750
     5  C    0.022903
     6  C   -0.088265
     7  Cl  -0.016953
     8  C   -0.004213
     9  C    0.109203
    10  C    0.214288
    11  N   -0.576719
    12  C    0.280989
    13  C    0.027601
    14  C   -0.013370
    15  C    0.187699
    16  N   -0.465150
    17  C    0.410069
    18  N   -0.541819
    19  C    0.549083
 Electronic spatial extent (au):  <R**2>=           6323.2018
 Charge=             -0.0000 electrons
 Dipole moment (field-independent basis, Debye):
    X=              0.3863    Y=              1.3076    Z=              0.0023  Tot=              1.3635
 Quadrupole moment (field-independent basis, Debye-Ang):
   XX=           -113.6620   YY=           -103.8811   ZZ=           -115.4068
   XY=             19.0881   XZ=             -0.0036   YZ=              0.0055
 Traceless Quadrupole moment (field-independent basis, Debye-Ang):
   XX=             -2.6787   YY=              7.1022   ZZ=             -4.4235
   XY=             19.0881   XZ=             -0.0036   YZ=              0.0055
 Octapole moment (field-independent basis, Debye-Ang**2):
  XXX=            -49.4645  YYY=             20.6902  ZZZ=              0.0015  XYY=             11.5700
  XXY=            -26.7497  XXZ=             -0.0009  XZZ=              2.8965  YZZ=              2.3971
  YYZ=              0.0192  XYZ=             -0.0084
 Hexadecapole moment (field-independent basis, Debye-Ang**3):
 XXXX=          -6286.0093 YYYY=          -1572.9949 ZZZZ=           -121.1777 XXXY=            328.1264
 XXXZ=             -0.0585 YYYX=             51.9167 YYYZ=              0.0249 ZZZX=              0.0100
 ZZZY=              0.0036 XXYY=          -1357.8416 XXZZ=          -1172.2731 YYZZ=           -315.5115
 XXYZ=             -0.0038 YYXZ=             -0.0260 ZZXY=            -19.4482
 N-N= 1.407496340854D+03 E-N=-5.667250039239D+03  KE= 1.210294281125D+03
 No NMR shielding tensors so no spin-rotation constants.
 Leave Link  601 at Sun Jan 18 23:59:19 2026, MaxMem=  8053063680 cpu:               1.8 elap:               0.1
 (Enter /appl/Gaussian16/AVX_revB01/g16/l701.exe)
 ... and contract with generalized density number  0.
 Compute integral first derivatives.
 Leave Link  701 at Sun Jan 18 23:59:19 2026, MaxMem=  8053063680 cpu:               1.8 elap:               0.1
 (Enter /appl/Gaussian16/AVX_revB01/g16/l702.exe)
 L702 exits ... SP integral derivatives will be done elsewhere.
 Leave Link  702 at Sun Jan 18 23:59:19 2026, MaxMem=  8053063680 cpu:               0.4 elap:               0.1
 (Enter /appl/Gaussian16/AVX_revB01/g16/l703.exe)
 Integral derivatives from FoFJK, PRISM(SPDF).
 Compute integral first derivatives, UseDBF=F ICtDFT=           0.
 Calling FoFJK, ICntrl=      2127 FMM=F ISym2X=0 I1Cent= 0 IOpClX= 0 NMat=1 NMatS=1 NMatT=0.
 FoFJK:  IHMeth= 1 ICntrl=    2127 DoSepK=F KAlg= 0 I1Cent=           0 FoldK=F
 IRaf=         0 NMat=       1 IRICut=       1 DoRegI=T DoRafI=F ISym2E= 0 IDoP0=0 IntGTp=1.
 FoFCou: FMM=F IPFlag=           0 FMFlag=      100000 FMFlg1=         800
         NFxFlg=           0 DoJE=F BraDBF=F KetDBF=F FulRan=T
         wScrn=  0.000000 ICntrl=      2127 IOpCl=  0 I1Cent=           0 NGrid=           0
         NMat0=    1 NMatS0=      1 NMatT0=    0 NMatD0=    1 NMtDS0=    0 NMtDT0=    0
 Symmetry not used in FoFCou.
 Leave Link  703 at Sun Jan 18 23:59:24 2026, MaxMem=  8053063680 cpu:              73.6 elap:               4.6
 (Enter /appl/Gaussian16/AVX_revB01/g16/l716.exe)
 Dipole        = 1.51971360D-01 5.14461228D-01 9.04660497D-04
 ***** Axes restored to original set *****
 -------------------------------------------------------------------
 Center     Atomic                   Forces (Hartrees/Bohr)
 Number     Number              X              Y              Z
 -------------------------------------------------------------------
      1        6           0.001260794   -0.005032349    0.000980070
      2        7           0.004835513   -0.005495859    0.000836310
      3        6           0.003198711    0.007361549   -0.001574564
      4        6           0.000390572   -0.006163734    0.001206169
      5        6           0.004846083    0.000295014   -0.000263861
      6        6          -0.001732230   -0.000639118    0.000202769
      7       17           0.007672231    0.012579695   -0.002862576
      8        6          -0.001878208    0.000052559    0.000063651
      9        6           0.000525865   -0.000008162   -0.000017910
     10        6           0.001891095   -0.006092856    0.001151591
     11        7           0.003196161    0.011832657   -0.002530479
     12        6          -0.003129986   -0.000702062    0.000277947
     13        6          -0.000389926    0.001244097   -0.000236997
     14        6          -0.004394707    0.004468711   -0.000716310
     15        6          -0.009025372    0.001431342    0.000091867
     16        7           0.002980943   -0.017101538    0.003326177
     17        6           0.000817434    0.005425203   -0.001133565
     18        7           0.008871821   -0.009619711    0.001549970
     19        6          -0.017480145    0.005441040   -0.000321578
     20        1           0.001492615   -0.001267785    0.002310579
     21        1           0.001322695   -0.002070814   -0.001759841
     22        1          -0.000977457   -0.001919890    0.000434203
     23        1           0.002949081   -0.004109214    0.000710055
     24        1           0.004477150   -0.000001534   -0.000190211
     25        1          -0.001914182    0.004491338   -0.000821838
     26        1           0.000262979    0.004349573   -0.000885163
     27        1          -0.004414292    0.002256968   -0.000268802
     28        1          -0.005655238   -0.001005120    0.000442339
 -------------------------------------------------------------------
 Cartesian Forces:  Max     0.017480145 RMS     0.004633089
 Leave Link  716 at Sun Jan 18 23:59:24 2026, MaxMem=  8053063680 cpu:               0.5 elap:               0.0
 (Enter /appl/Gaussian16/AVX_revB01/g16/l103.exe)

 GradGradGradGradGradGradGradGradGradGradGradGradGradGradGradGradGradGrad
 Berny optimization.
 FormGI is forming the generalized inverse of G from B-inverse, IUseBI=4.
 Internal  Forces:  Max     0.018735801 RMS     0.004434789
 Search for a local minimum.
 Step number   1 out of a maximum of  166
 All quantities printed in internal units (Hartrees-Bohrs-Radians)
 RMS Force = .44348D-02 SwitMx=.10000D-02 MixMth= 1
 Mixed Optimization -- RFO/linear search
 Second derivative matrix not updated -- first step.
 ITU=  0
     Eigenvalues ---    0.01208   0.01681   0.01781   0.01916   0.01943
     Eigenvalues ---    0.01972   0.01995   0.02034   0.02083   0.02113
     Eigenvalues ---    0.02167   0.02188   0.02218   0.02220   0.02249
     Eigenvalues ---    0.02250   0.02271   0.02289   0.02291   0.02293
     Eigenvalues ---    0.02358   0.02603   0.02664   0.07597   0.07940
     Eigenvalues ---    0.16000   0.16000   0.16000   0.16000   0.16000
     Eigenvalues ---    0.16000   0.16000   0.16000   0.16000   0.22093
     Eigenvalues ---    0.22448   0.23359   0.23533   0.24630   0.24910
     Eigenvalues ---    0.25000   0.25000   0.25000   0.25000   0.25000
     Eigenvalues ---    0.25000   0.25000   0.32466   0.34056   0.34586
     Eigenvalues ---    0.34586   0.35009   0.35648   0.36025   0.36116
     Eigenvalues ---    0.36166   0.36188   0.36302   0.37380   0.37956
     Eigenvalues ---    0.39788   0.40054   0.42624   0.43631   0.43841
     Eigenvalues ---    0.45050   0.47241   0.47533   0.48254   0.48338
     Eigenvalues ---    0.49478   0.51416   0.52420   0.53694   0.55251
     Eigenvalues ---    0.63146   0.63990   0.64220
 RFO step:  Lambda=-6.48123663D-03 EMin= 1.20750431D-02
 Linear search not attempted -- first point.
 Iteration  1 RMS(Cart)=  0.02682435 RMS(Int)=  0.00004881
 Iteration  2 RMS(Cart)=  0.00008642 RMS(Int)=  0.00000787
 Iteration  3 RMS(Cart)=  0.00000001 RMS(Int)=  0.00000787
 ITry= 1 IFail=0 DXMaxC= 1.23D-01 DCOld= 1.00D+10 DXMaxT= 3.00D-01 DXLimC= 3.00D+00 Rises=F
 Variable       Old X    -DE/DX   Delta X   Delta X   Delta X     New X
                                 (Linear)    (Quad)   (Total)
    R1        2.71480   0.01091   0.00000   0.02680   0.02680   2.74160
    R2        2.06352   0.00284   0.00000   0.00805   0.00805   2.07157
    R3        2.06352   0.00283   0.00000   0.00805   0.00805   2.07157
    R4        2.05661   0.00185   0.00000   0.00518   0.00518   2.06178
    R5        2.60750   0.01344   0.00000   0.02827   0.02826   2.63576
    R6        2.56491   0.01780   0.00000   0.03432   0.03433   2.59924
    R7        2.61968   0.00904   0.00000   0.01852   0.01851   2.63819
    R8        2.67680   0.00454   0.00000   0.00887   0.00884   2.68564
    R9        2.61357   0.01127   0.00000   0.02348   0.02349   2.63706
   R10        2.03788   0.00509   0.00000   0.01381   0.01381   2.05169
   R11        2.63396   0.00992   0.00000   0.02163   0.02164   2.65560
   R12        2.03823   0.00448   0.00000   0.01217   0.01217   2.05040
   R13        3.26999   0.01501   0.00000   0.04533   0.04533   3.31532
   R14        2.61362   0.00949   0.00000   0.01937   0.01938   2.63301
   R15        2.62082   0.00936   0.00000   0.01871   0.01871   2.63953
   R16        2.03612   0.00491   0.00000   0.01330   0.01330   2.04941
   R17        2.71381   0.01041   0.00000   0.02338   0.02338   2.73719
   R18        2.46758   0.00968   0.00000   0.01434   0.01434   2.48191
   R19        2.73258   0.00413   0.00000   0.00931   0.00931   2.74189
   R20        2.55524   0.01241   0.00000   0.02282   0.02282   2.57806
   R21        2.66196   0.00815   0.00000   0.01673   0.01672   2.67868
   R22        2.71110   0.00842   0.00000   0.02099   0.02100   2.73210
   R23        2.58590   0.00776   0.00000   0.01408   0.01407   2.59996
   R24        2.04042   0.00444   0.00000   0.01211   0.01211   2.05254
   R25        2.65913   0.00947   0.00000   0.02146   0.02146   2.68060
   R26        2.03900   0.00497   0.00000   0.01350   0.01350   2.05251
   R27        2.46301   0.01874   0.00000   0.02895   0.02896   2.49197
   R28        2.04635   0.00533   0.00000   0.01468   0.01468   2.06103
   R29        2.53789   0.01513   0.00000   0.02727   0.02728   2.56516
   R30        2.55020   0.01360   0.00000   0.02468   0.02469   2.57489
   R31        2.47152   0.00461   0.00000   0.00673   0.00672   2.47824
    A1        1.92986   0.00106   0.00000   0.00653   0.00651   1.93637
    A2        1.92978   0.00105   0.00000   0.00645   0.00643   1.93621
    A3        1.87422   0.00126   0.00000   0.00727   0.00724   1.88146
    A4        1.90468  -0.00100   0.00000  -0.00548  -0.00551   1.89918
    A5        1.91254  -0.00119   0.00000  -0.00747  -0.00749   1.90504
    A6        1.91255  -0.00118   0.00000  -0.00738  -0.00740   1.90515
    A7        2.20920  -0.00062   0.00000  -0.00448  -0.00448   2.20471
    A8        2.17954   0.00114   0.00000   0.00236   0.00236   2.18190
    A9        1.89445  -0.00053   0.00000   0.00213   0.00212   1.89657
   A10        2.25352  -0.00017   0.00000   0.00037   0.00039   2.25391
   A11        1.92210  -0.00076   0.00000  -0.00196  -0.00197   1.92014
   A12        2.10757   0.00092   0.00000   0.00158   0.00157   2.10914
   A13        2.06083   0.00004   0.00000   0.00050   0.00050   2.06133
   A14        2.11874   0.00042   0.00000   0.00240   0.00241   2.12115
   A15        2.10361  -0.00046   0.00000  -0.00291  -0.00291   2.10070
   A16        2.10989  -0.00012   0.00000   0.00129   0.00130   2.11119
   A17        2.09366   0.00003   0.00000  -0.00086  -0.00086   2.09280
   A18        2.07963   0.00010   0.00000  -0.00043  -0.00044   2.07920
   A19        2.07147   0.00156   0.00000   0.00575   0.00575   2.07721
   A20        2.12869  -0.00270   0.00000  -0.00990  -0.00989   2.11880
   A21        2.08302   0.00115   0.00000   0.00415   0.00414   2.08717
   A22        2.05059   0.00258   0.00000   0.00949   0.00949   2.06009
   A23        2.12555  -0.00191   0.00000  -0.00850  -0.00850   2.11705
   A24        2.10704  -0.00067   0.00000  -0.00100  -0.00100   2.10604
   A25        2.10880  -0.00071   0.00000  -0.00297  -0.00298   2.10582
   A26        1.85048   0.00107   0.00000   0.00002   0.00001   1.85049
   A27        2.32391  -0.00035   0.00000   0.00295   0.00297   2.32687
   A28        2.30836  -0.00273   0.00000  -0.00713  -0.00713   2.30123
   A29        1.84727   0.00344   0.00000   0.00976   0.00977   1.85704
[...]
 Alpha  occ. eigenvalues --   -0.93930  -0.91331  -0.89208  -0.84323  -0.81314
 Alpha  occ. eigenvalues --   -0.79618  -0.76225  -0.75414  -0.71833  -0.68432
 Alpha  occ. eigenvalues --   -0.65431  -0.63039  -0.61464  -0.59756  -0.57286
 Alpha  occ. eigenvalues --   -0.55636  -0.51889  -0.51446  -0.49089  -0.49013
 Alpha  occ. eigenvalues --   -0.48072  -0.47255  -0.46140  -0.45795  -0.44453
 Alpha  occ. eigenvalues --   -0.44368  -0.41758  -0.41269  -0.41160  -0.39330
 Alpha  occ. eigenvalues --   -0.39039  -0.38394  -0.37009  -0.36356  -0.34635
 Alpha  occ. eigenvalues --   -0.32043  -0.31548  -0.30724  -0.29384  -0.28230
 Alpha  occ. eigenvalues --   -0.26795  -0.24400  -0.24042  -0.22118
 Alpha virt. eigenvalues --   -0.08573  -0.03336  -0.00871  -0.00272   0.01049
 Alpha virt. eigenvalues --    0.02669   0.09010   0.09205   0.10275   0.11522
 Alpha virt. eigenvalues --    0.13888   0.14188   0.14307   0.15527   0.15849
 Alpha virt. eigenvalues --    0.16611   0.17280   0.17577   0.18903   0.20325
 Alpha virt. eigenvalues --    0.20842   0.23529   0.24244   0.25188   0.26154
 Alpha virt. eigenvalues --    0.28270   0.28914   0.30681   0.32263   0.34616
 Alpha virt. eigenvalues --    0.34980   0.37112   0.37837   0.39614   0.40643
 Alpha virt. eigenvalues --    0.41964   0.42709   0.43167   0.44224   0.45916
 Alpha virt. eigenvalues --    0.47713   0.48082   0.49443   0.50509   0.50614
 Alpha virt. eigenvalues --    0.52465   0.52479   0.53618   0.53718   0.54217
 Alpha virt. eigenvalues --    0.56182   0.56456   0.57996   0.58446   0.58474
 Alpha virt. eigenvalues --    0.59141   0.59146   0.59751   0.60200   0.62561
 Alpha virt. eigenvalues --    0.62600   0.63361   0.64689   0.64770   0.65749
 Alpha virt. eigenvalues --    0.66191   0.68076   0.68668   0.69540   0.71634
 Alpha virt. eigenvalues --    0.72630   0.72838   0.75123   0.78526   0.78754
 Alpha virt. eigenvalues --    0.79048   0.80281   0.81286   0.81856   0.82059
 Alpha virt. eigenvalues --    0.83017   0.83805   0.84292   0.84971   0.86134
 Alpha virt. eigenvalues --    0.87163   0.87335   0.87775   0.88878   0.89836
 Alpha virt. eigenvalues --    0.90437   0.91555   0.93502   0.93846   0.94119
 Alpha virt. eigenvalues --    0.94777   0.94814   0.96085   0.97206   0.99039
 Alpha virt. eigenvalues --    1.00438   1.02939   1.04469   1.07871   1.08616
 Alpha virt. eigenvalues --    1.10648   1.13285   1.13687   1.15129   1.17814
 Alpha virt. eigenvalues --    1.18480   1.19544   1.23397   1.23447   1.25332
 Alpha virt. eigenvalues --    1.26883   1.28729   1.29817   1.30711   1.31930
 Alpha virt. eigenvalues --    1.33355   1.35014   1.36998   1.38735   1.39368
 Alpha virt. eigenvalues --    1.40995   1.43088   1.43330   1.45887   1.46324
 Alpha virt. eigenvalues --    1.47218   1.48750   1.49232   1.50483   1.51172
 Alpha virt. eigenvalues --    1.53960   1.59056   1.63204   1.65296   1.67479
 Alpha virt. eigenvalues --    1.70400   1.71851   1.73882   1.75997   1.77609
 Alpha virt. eigenvalues --    1.79067   1.79131   1.80177   1.82041   1.83364
 Alpha virt. eigenvalues --    1.84856   1.85337   1.86754   1.89640   1.90532
 Alpha virt. eigenvalues --    1.92391   1.94947   1.95016   1.97585   1.99658
 Alpha virt. eigenvalues --    2.01314   2.02775   2.02931   2.05019   2.08250
 Alpha virt. eigenvalues --    2.10894   2.11621   2.12817   2.13729   2.16267
 Alpha virt. eigenvalues --    2.16947   2.18524   2.19624   2.21062   2.21391
 Alpha virt. eigenvalues --    2.23732   2.24878   2.26362   2.27338   2.31820
 Alpha virt. eigenvalues --    2.32463   2.33330   2.34593   2.37341   2.37693
 Alpha virt. eigenvalues --    2.40574   2.41792   2.43485   2.47476   2.51011
 Alpha virt. eigenvalues --    2.51402   2.52670   2.58998   2.60295   2.61280
 Alpha virt. eigenvalues --    2.61532   2.63743   2.65317   2.66371   2.66499
 Alpha virt. eigenvalues --    2.67539   2.70564   2.72609   2.75459   2.75913
 Alpha virt. eigenvalues --    2.78894   2.80837   2.83882   2.86094   2.89937
 Alpha virt. eigenvalues --    2.97312   2.99487   3.02336   3.06271   3.22828
 Alpha virt. eigenvalues --    3.26028   3.35589   3.45418   3.53043   4.02963
 Alpha virt. eigenvalues --    4.04459   4.06194   4.07869   4.10291   4.14238
 Alpha virt. eigenvalues --    4.15699   4.20015   4.25325   4.27503   4.30515
 Alpha virt. eigenvalues --    4.36514   4.42298   4.43113   4.51596   4.63207
 Alpha virt. eigenvalues --    4.67931   4.76548   4.85356
          Condensed to atoms (all electrons):
               1          2          3          4          5          6
     1  C    4.999476   0.289819  -0.043522  -0.002838  -0.000131   0.000011
     2  N    0.289819   7.153997   0.276604  -0.093134   0.005757  -0.000280
     3  C   -0.043522   0.276604   4.699625   0.481844   0.001206  -0.036450
     4  C   -0.002838  -0.093134   0.481844   5.076426   0.497431  -0.023732
     5  C   -0.000131   0.005757   0.001206   0.497431   4.927682   0.512054
     6  C    0.000011  -0.000280  -0.036450  -0.023732   0.512054   5.002656
     7  Cl   0.000000   0.000004   0.000826   0.004146  -0.062502   0.234053
     8  C   -0.000070   0.009900  -0.074906  -0.051719  -0.034121   0.463164
     9  C    0.004493  -0.031354   0.456138  -0.051738  -0.035507   0.005928
    10  C    0.006704  -0.084194   0.023861   0.014501   0.000131   0.008372
    11  N   -0.000096   0.006418   0.008141  -0.000125   0.000007   0.000204
    12  C   -0.000019   0.001061   0.000055   0.000006   0.000000   0.000004
    13  C    0.000000   0.000009   0.000006  -0.000000  -0.000000  -0.000000
    14  C   -0.000000   0.000000  -0.000000   0.000000   0.000000   0.000000
    15  C    0.000000   0.000000  -0.000000   0.000000   0.000000  -0.000000
    16  N    0.000005  -0.000046  -0.000001  -0.000000   0.000000  -0.000000
    17  C    0.000059   0.002426  -0.000246  -0.000002   0.000000   0.000000
    18  N   -0.006916  -0.080282   0.000006  -0.000180   0.000002   0.000000
    19  C   -0.035415   0.278615  -0.093339   0.002626  -0.000134  -0.000321
    20  H    0.374904  -0.040859  -0.000655   0.002532  -0.000000  -0.000001
    21  H    0.374875  -0.040862  -0.000657   0.002542  -0.000000  -0.000001
    22  H    0.375651  -0.032791   0.001975   0.000063   0.000001  -0.000000
    23  H    0.004479  -0.007833  -0.033640   0.353133  -0.040654   0.004063
    24  H   -0.000001  -0.000093   0.002591  -0.034219   0.360361  -0.038384
    25  H    0.000003  -0.000087   0.004389   0.000270   0.004071  -0.045861
    26  H    0.000000  -0.000000  -0.000000  -0.000000   0.000000   0.000000
    27  H   -0.000000  -0.000000   0.000000   0.000000  -0.000000  -0.000000
    28  H    0.000000  -0.000000  -0.000000  -0.000000   0.000000  -0.000000
               7          8          9         10         11         12
     1  C    0.000000  -0.000070   0.004493   0.006704  -0.000096  -0.000019
     2  N    0.000004   0.009900  -0.031354  -0.084194   0.006418   0.001061
     3  C    0.000826  -0.074906   0.456138   0.023861   0.008141   0.000055
     4  C    0.004146  -0.051719  -0.051738   0.014501  -0.000125   0.000006
     5  C   -0.062502  -0.034121  -0.035507   0.000131   0.000007   0.000000
     6  C    0.234053   0.463164   0.005928   0.008372   0.000204   0.000004
     7  Cl  16.908242  -0.064348   0.002952  -0.000119   0.000001  -0.000000
     8  C   -0.064348   5.198017   0.456259  -0.101763  -0.004917  -0.000046
     9  C    0.002952   0.456259   4.967293   0.243866  -0.089131   0.000915
    10  C   -0.000119  -0.101763   0.243866   5.071963   0.460356  -0.046358
    11  N    0.000001  -0.004917  -0.089131   0.460356   7.051476   0.370566
    12  C   -0.000000  -0.000046   0.000915  -0.046358   0.370566   4.779505
    13  C    0.000000  -0.000003  -0.000569  -0.000218  -0.067818   0.481037
    14  C   -0.000000  -0.000000   0.000006  -0.000155   0.005449  -0.009956
    15  C    0.000000   0.000000  -0.000000   0.000110  -0.000061  -0.029232
    16  N   -0.000000  -0.000000   0.000023   0.000458   0.005303  -0.065756
    17  C   -0.000000   0.000009   0.004048  -0.027575  -0.058714   0.376291
    18  N   -0.000000  -0.000076   0.008542  -0.057118  -0.019069  -0.099502
    19  C    0.000002   0.016883  -0.020935   0.278139  -0.096187  -0.009182
    20  H    0.000000  -0.000008  -0.000132  -0.000031   0.000002   0.000000
    21  H    0.000000  -0.000008  -0.000131  -0.000030   0.000002   0.000000
    22  H   -0.000000   0.000008  -0.000038   0.000412  -0.000012   0.000038
    23  H   -0.000140   0.000586   0.004192  -0.000283   0.000001  -0.000000
    24  H    0.000029   0.004116   0.000824   0.000007  -0.000000   0.000000
    25  H   -0.000175   0.361684  -0.032632  -0.008251   0.003715  -0.000015
    26  H    0.000000   0.000005  -0.000012   0.000613   0.000103  -0.034029
    27  H    0.000000  -0.000000  -0.000000  -0.000001  -0.000082   0.003943
    28  H    0.000000  -0.000000   0.000000   0.000002   0.000009   0.000549
              13         14         15         16         17         18
     1  C    0.000000  -0.000000   0.000000   0.000005   0.000059  -0.006916
     2  N    0.000009   0.000000   0.000000  -0.000046   0.002426  -0.080282
     3  C    0.000006  -0.000000  -0.000000  -0.000001  -0.000246   0.000006
     4  C   -0.000000   0.000000   0.000000  -0.000000  -0.000002  -0.000180
     5  C   -0.000000   0.000000   0.000000   0.000000   0.000000   0.000002
     6  C   -0.000000   0.000000  -0.000000  -0.000000   0.000000   0.000000
     7  Cl   0.000000  -0.000000   0.000000  -0.000000  -0.000000  -0.000000
     8  C   -0.000003  -0.000000   0.000000  -0.000000   0.000009  -0.000076
     9  C   -0.000569   0.000006  -0.000000   0.000023   0.004048   0.008542
    10  C   -0.000218  -0.000155   0.000110   0.000458  -0.027575  -0.057118
    11  N   -0.067818   0.005449  -0.000061   0.005303  -0.058714  -0.019069
    12  C    0.481037  -0.009956  -0.029232  -0.065756   0.376291  -0.099502
    13  C    5.000210   0.532814  -0.031081  -0.040171  -0.063813   0.004020
    14  C    0.532814   4.994719   0.449439  -0.023708  -0.037502   0.000118
    15  C   -0.031081   0.449439   4.790340   0.478585  -0.051171   0.003076
    16  N   -0.040171  -0.023708   0.478585   6.863690   0.386669  -0.086147
    17  C   -0.063813  -0.037502  -0.051171   0.386669   4.705240   0.395079
    18  N    0.004020   0.000118   0.003076  -0.086147   0.395079   7.039916
    19  C    0.002453   0.000033  -0.000013  -0.000758  -0.048878   0.422786
    20  H   -0.000000   0.000000  -0.000000  -0.000000  -0.000000   0.000356
    21  H   -0.000000   0.000000  -0.000000  -0.000000  -0.000000   0.000356
    22  H   -0.000000  -0.000000   0.000001  -0.000034   0.000036   0.016460
    23  H    0.000000  -0.000000   0.000000  -0.000000  -0.000000   0.000001
    24  H   -0.000000   0.000000  -0.000000  -0.000000   0.000000  -0.000000
    25  H   -0.000003   0.000000   0.000000  -0.000000   0.000002   0.000000
    26  H    0.348101  -0.046483   0.004994  -0.000531   0.005836  -0.000134
    27  H   -0.037286   0.352012  -0.035564   0.004424   0.000566   0.000014
    28  H    0.003440  -0.064808   0.378343  -0.053722   0.004592  -0.000095
              19         20         21         22         23         24
     1  C   -0.035415   0.374904   0.374875   0.375651   0.004479  -0.000001
     2  N    0.278615  -0.040859  -0.040862  -0.032791  -0.007833  -0.000093
     3  C   -0.093339  -0.000655  -0.000657   0.001975  -0.033640   0.002591
     4  C    0.002626   0.002532   0.002542   0.000063   0.353133  -0.034219
     5  C   -0.000134  -0.000000  -0.000000   0.000001  -0.040654   0.360361
     6  C   -0.000321  -0.000001  -0.000001  -0.000000   0.004063  -0.038384
     7  Cl   0.000002   0.000000   0.000000  -0.000000  -0.000140   0.000029
     8  C    0.016883  -0.000008  -0.000008   0.000008   0.000586   0.004116
     9  C   -0.020935  -0.000132  -0.000131  -0.000038   0.004192   0.000824
    10  C    0.278139  -0.000031  -0.000030   0.000412  -0.000283   0.000007
    11  N   -0.096187   0.000002   0.000002  -0.000012   0.000001  -0.000000
    12  C   -0.009182   0.000000   0.000000   0.000038  -0.000000   0.000000
    13  C    0.002453  -0.000000  -0.000000  -0.000000   0.000000  -0.000000
    14  C    0.000033   0.000000   0.000000  -0.000000  -0.000000   0.000000
    15  C   -0.000013  -0.000000  -0.000000   0.000001   0.000000  -0.000000
    16  N   -0.000758  -0.000000  -0.000000  -0.000034  -0.000000  -0.000000
    17  C   -0.048878  -0.000000  -0.000000   0.000036  -0.000000   0.000000
    18  N    0.422786   0.000356   0.000356   0.016460   0.000001  -0.000000
    19  C    4.750492   0.000973   0.000975  -0.002356   0.000027   0.000002
    20  H    0.000973   0.555207  -0.041783  -0.023273   0.000644  -0.000000
    21  H    0.000975  -0.041783   0.555210  -0.023241   0.000649  -0.000000
    22  H   -0.002356  -0.023273  -0.023241   0.471735  -0.000048  -0.000000
    23  H    0.000027   0.000644   0.000649  -0.000048   0.572821  -0.005090
    24  H    0.000002  -0.000000  -0.000000  -0.000000  -0.005090   0.550326
    25  H    0.000146  -0.000000  -0.000000  -0.000000   0.000015  -0.000154
    26  H    0.000035  -0.000000  -0.000000   0.000000   0.000000  -0.000000
    27  H   -0.000002   0.000000   0.000000  -0.000000   0.000000  -0.000000
    28  H   -0.000007  -0.000000  -0.000000  -0.000000  -0.000000  -0.000000
              25         26         27         28
     1  C    0.000003   0.000000  -0.000000   0.000000
     2  N   -0.000087  -0.000000  -0.000000  -0.000000
     3  C    0.004389  -0.000000   0.000000  -0.000000
     4  C    0.000270  -0.000000   0.000000  -0.000000
     5  C    0.004071   0.000000  -0.000000   0.000000
     6  C   -0.045861   0.000000  -0.000000  -0.000000
     7  Cl  -0.000175   0.000000   0.000000   0.000000
     8  C    0.361684   0.000005  -0.000000  -0.000000
     9  C   -0.032632  -0.000012  -0.000000   0.000000
    10  C   -0.008251   0.000613  -0.000001   0.000002
    11  N    0.003715   0.000103  -0.000082   0.000009
    12  C   -0.000015  -0.034029   0.003943   0.000549
    13  C   -0.000003   0.348101  -0.037286   0.003440
    14  C    0.000000  -0.046483   0.352012  -0.064808
    15  C    0.000000   0.004994  -0.035564   0.378343
    16  N   -0.000000  -0.000531   0.004424  -0.053722
    17  C    0.000002   0.005836   0.000566   0.004592
    18  N    0.000000  -0.000134   0.000014  -0.000095
    19  C    0.000146   0.000035  -0.000002  -0.000007
    20  H   -0.000000  -0.000000   0.000000  -0.000000
    21  H   -0.000000  -0.000000   0.000000  -0.000000
    22  H   -0.000000   0.000000  -0.000000  -0.000000
    23  H    0.000015   0.000000   0.000000  -0.000000
    24  H   -0.000154  -0.000000  -0.000000  -0.000000
    25  H    0.537224   0.000005  -0.000000  -0.000000
    26  H    0.000005   0.569322  -0.005743  -0.000162
    27  H   -0.000000  -0.005743   0.576124  -0.001512
    28  H   -0.000000  -0.000162  -0.001512   0.585819
 Mulliken charges:
               1
     1  C   -0.341469
     2  N   -0.612796
     3  C    0.326149
     4  C   -0.177834
     5  C   -0.135655
     6  C   -0.085476
     7  Cl  -0.022971
     8  C   -0.178647
     9  C    0.106700
    10  C    0.216603
    11  N   -0.575541
    12  C    0.280127
    13  C   -0.131129
    14  C   -0.151979
    15  C    0.042235
    16  N   -0.468283
    17  C    0.407050
    18  N   -0.541214
    19  C    0.553339
    20  H    0.172123
    21  H    0.172104
    22  H    0.215413
    23  H    0.147074
    24  H    0.159688
    25  H    0.175652
    26  H    0.158080
    27  H    0.143107
    28  H    0.147552
 Sum of Mulliken charges =  -0.00000
 Mulliken charges with hydrogens summed into heavy atoms:
               1
     1  C    0.218171
     2  N   -0.612796
     3  C    0.326149
     4  C   -0.030760
     5  C    0.024033
     6  C   -0.085476
     7  Cl  -0.022971
     8  C   -0.002995
     9  C    0.106700
    10  C    0.216603
    11  N   -0.575541
    12  C    0.280127
    13  C    0.026951
    14  C   -0.008872
    15  C    0.189787
    16  N   -0.468283
    17  C    0.407050
    18  N   -0.541214
    19  C    0.553339
 Electronic spatial extent (au):  <R**2>=           6417.0901
 Charge=              0.0000 electrons
 Dipole moment (field-independent basis, Debye):
    X=              0.2701    Y=              1.2864    Z=              0.0010  Tot=              1.3144
 Quadrupole moment (field-independent basis, Debye-Ang):
   XX=           -113.7067   YY=           -103.7150   ZZ=           -115.8923
   XY=             19.8292   XZ=             -0.0012   YZ=              0.0028
 Traceless Quadrupole moment (field-independent basis, Debye-Ang):
   XX=             -2.6020   YY=              7.3897   ZZ=             -4.7876
   XY=             19.8292   XZ=             -0.0012   YZ=              0.0028
 Octapole moment (field-independent basis, Debye-Ang**2):
  XXX=            -53.7157  YYY=             21.6542  ZZZ=              0.0009  XYY=             11.0008
  XXY=            -27.7075  XXZ=              0.0048  XZZ=              3.0033  YZZ=              2.3735
  YYZ=              0.0086  XYZ=             -0.0004
 Hexadecapole moment (field-independent basis, Debye-Ang**3):
 XXXX=          -6370.7808 YYYY=          -1597.2417 ZZZZ=           -122.0662 XXXY=            351.6621
 XXXZ=             -0.0287 YYYX=             55.5987 YYYZ=              0.0151 ZZZX=              0.0072
 ZZZY=              0.0000 XXYY=          -1377.4564 XXZZ=          -1192.9741 YYZZ=           -322.0060
 XXYZ=             -0.0004 YYXZ=             -0.0075 ZZXY=            -20.0462
 N-N= 1.396578633594D+03 E-N=-5.644879363720D+03  KE= 1.209629662753D+03
 No NMR shielding tensors so no spin-rotation constants.
 Leave Link  601 at Mon Jan 19 00:00:30 2026, MaxMem=  8053063680 cpu:               2.5 elap:               0.3
 (Enter /appl/Gaussian16/AVX_revB01/g16/l9999.exe)
 1\1\GINC-CNODE13\FOpt\RB3LYP\6-31G(d)\C14H9Cl1N4\JUNHKIM\19-Jan-2026\0
 \\#P b3lyp/6-31g* opt SCF=XQC\\Gaussian input prepared by ASE\\0,1\C,1
 .4899995681,-2.7123284622,0.4493821275\N,1.146366923,-1.32817233,0.185
 9510884\C,2.0402866302,-0.2859539403,-0.0620936859\C,3.4337207896,-0.3
 205707328,-0.1141316012\C,4.1081435189,0.8702362476,-0.3827615603\C,3.
 4011823788,2.0639862422,-0.5934360629\Cl,4.3036746108,3.5371603209,-0.
 9286223218\C,2.0117363079,2.1112884738,-0.5440992211\C,1.3300368369,0.
 9239104202,-0.2758887234\C,-0.0735459295,0.5925894987,-0.1496846617\N,
 -1.1554519451,1.3297610589,-0.2525150519\C,-2.3274774406,0.652651342,-
 0.0665059087\C,-3.5539949681,1.3531463491,-0.1558155201\C,-4.730531860
 5,0.6668690481,0.0321865563\C,-4.6662355667,-0.7215009898,0.3092094761
 \N,-3.5499492829,-1.4191028764,0.402599444\C,-2.3765459692,-0.76064718
 48,0.2203492566\N,-1.2387907443,-1.5071666118,0.3227352572\C,-0.136816
 5377,-0.8254224979,0.1388075071\H,2.106831758,-2.7947981299,1.35154472
 44\H,2.0340629477,-3.1456556274,-0.3976094302\H,0.5586386079,-3.260758
 8861,0.5981869397\H,3.9879040264,-1.2394456449,0.0476532201\H,5.191793
 1568,0.8796371157,-0.4305643872\H,1.472695263,3.037819869,-0.708028645
 2\H,-3.5232923107,2.4171498865,-0.3715049132\H,-5.693853243,1.16397255
 58,-0.0272632299\H,-5.5905875256,-1.2786555144,0.4605223273\\Version=E
 S64L-G16RevB.01\State=1-A\HF=-1218.1410963\RMSD=6.678e-09\RMSF=1.111e-
 04\Dipole=0.2590903,-0.4407956,0.0774713\Quadrupole=7.538391,-3.753487
 1,-3.784904,-13.8644694,2.3241245,0.6281689\PG=C01 [X(C14H9Cl1N4)]\\@


 KNOWLEDGE IS OF TWO KINDS:  WE KNOW A SUBJECT OURSELVES OR WE KNOW 
 WHERE WE CAN FIND INFORMATION UPON IT.

                                    -- SAMUEL JOHNSON
 Job cpu time:       0 days  0 hours 21 minutes 38.3 seconds.
 Elapsed time:       0 days  0 hours  1 minutes 22.8 seconds.
 File lengths (MBytes):  RWF=     77 Int=      0 D2E=      0 Chk=      9 Scr=      2
 Normal termination of Gaussian 16 at Mon Jan 19 00:00:31 2026.
