
                                 *****************
                                 * O   R   C   A *
                                 *****************

           --- An Ab Initio, DFT and Semiempirical electronic structure package ---

                  #######################################################
                  #                        -***-                        #
                  #          Department of theory and spectroscopy      #
                  #               Directorship: Frank Neese             #
                  #        Max Planck Institute fuer Kohlenforschung    #
                  #                Kaiser Wilhelm Platz 1               #
                  #                 D-45470 Muelheim/Ruhr               #
                  #                      Germany                        #
                  #                                                     #
                  #                  All rights reserved                #
                  #                        -***-                        #
                  #######################################################


                         Program Version 4.2.1 -  RELEASE  -


 With contributions from (in alphabetic order):
   Daniel Aravena         : Magnetic Suceptibility
   Michael Atanasov       : Ab Initio Ligand Field Theory (pilot matlab implementation)
   Alexander A. Auer      : GIAO ZORA, VPT2
   Ute Becker             : Parallelization
   Giovanni Bistoni       : ED, misc. LED, open-shell LED, HFLD
   Martin Brehm           : Molecular dynamics
   Dmytro Bykov           : SCF Hessian
   Vijay G. Chilkuri      : MRCI spin determinant printing, contributions to CSF-ICE
   Dipayan Datta          : RHF DLPNO-CCSD density
   Achintya Kumar Dutta   : EOM-CC, STEOM-CC
   Dmitry Ganyushin       : Spin-Orbit,Spin-Spin,Magnetic field MRCI
   Miquel Garcia          : C-PCM Hessian, Gaussian charge scheme
   Yang Guo               : DLPNO-NEVPT2, CIM, IAO-localization
   Andreas Hansen         : Spin unrestricted coupled pair/coupled cluster methods
   Benjamin Helmich-Paris : CASSCF linear response (MC-RPA)
   Lee Huntington         : MR-EOM, pCC
   Robert Izsak           : Overlap fitted RIJCOSX, COSX-SCS-MP3, EOM
   Christian Kollmar      : KDIIS, OOCD, Brueckner-CCSD(T), CCSD density
   Simone Kossmann        : Meta GGA functionals, TD-DFT gradient, OOMP2, MP2 Hessian
   Martin Krupicka        : AUTO-CI
   Lucas Lang             : DCDCAS
   Dagmar Lenk            : GEPOL surface, SMD
   Dimitrios Liakos       : Extrapolation schemes; Compound Job, initial MDCI parallelization
   Dimitrios Manganas     : Further ROCIS development; embedding schemes
   Dimitrios Pantazis     : SARC Basis sets
   Taras Petrenko         : DFT Hessian,TD-DFT gradient, ASA, ECA, R-Raman, ABS, FL, XAS/XES, NRVS
   Peter Pinski           : DLPNO-MP2, DLPNO-MP2 Gradient
   Christoph Reimann      : Effective Core Potentials
   Marius Retegan         : Local ZFS, SOC
   Christoph Riplinger    : Optimizer, TS searches, QM/MM, DLPNO-CCSD(T), (RO)-DLPNO pert. Triples
   Tobias Risthaus        : Range-separated hybrids, TD-DFT gradient, RPA, STAB
   Michael Roemelt        : Original ROCIS implementation
   Masaaki Saitow         : Open-shell DLPNO-CCSD energy and density
   Barbara Sandhoefer     : DKH picture change effects
   Avijit Sen             : IP-ROCIS
   Kantharuban Sivalingam : CASSCF convergence, NEVPT2, FIC-MRCI
   Bernardo de Souza      : ESD, SOC TD-DFT
   Georgi Stoychev        : AutoAux, RI-MP2 NMR
   Willem Van den Heuvel  : Paramagnetic NMR
   Boris Wezisla          : Elementary symmetry handling
   Frank Wennmohs         : Technical directorship


 We gratefully acknowledge several colleagues who have allowed us to
 interface, adapt or use parts of their codes:
   Stefan Grimme, W. Hujo, H. Kruse,             : VdW corrections, initial TS optimization,
                  C. Bannwarth                     DFT functionals, gCP, sTDA/sTD-DF
   Ed Valeev, F. Pavosevic, A. Kumar             : LibInt (2-el integral package), F12 methods
   Garnet Chan, S. Sharma, J. Yang, R. Olivares  : DMRG
   Ulf Ekstrom                                   : XCFun DFT Library
   Mihaly Kallay                                 : mrcc  (arbitrary order and MRCC methods)
   Andreas Klamt, Michael Diedenhofen            : otool_cosmo (COSMO solvation model)
   Jiri Pittner, Ondrej Demel                    : Mk-CCSD
   Frank Weinhold                                : gennbo (NPA and NBO analysis)
   Christopher J. Cramer and Donald G. Truhlar   : smd solvation model
   Lars Goerigk                                  : TD-DFT with DH, B97 family of functionals
   V. Asgeirsson, H. Jonsson                     : NEB implementation
   FAccTs GmbH                                   : IRC, NEB, NEB-TS, Multilevel, MM, QM/MM, CI optimization
   S Lehtola, MJT Oliveira, MAL Marques          : LibXC Library


 Your calculation uses the libint2 library for the computation of 2-el integrals
 For citations please refer to: http://libint.valeyev.net

 Your ORCA version has been built with support for libXC version: 4.2.3
 For citations please refer to: https://tddft.org/programs/libxc/

 This ORCA versions uses:
   CBLAS   interface :  Fast vector & matrix operations
   LAPACKE interface :  Fast linear algebra routines
   SCALAPACK package :  Parallel linear algebra routines


Your calculation utilizes the semiempirical GFN2-xTB method
Please cite in your paper:
C. Bannwarth, Ehlert S., S. Grimme,  J. Chem. Theory Comput., 15, (2019), 1652.
   

----- Orbital basis set information -----
Your calculation utilizes the basis: def2-SVP
   F. Weigend and R. Ahlrichs, Phys. Chem. Chem. Phys. 7, 3297 (2005).

================================================================================
                                        WARNINGS
                       Please study these warnings very carefully!
================================================================================


WARNING: Geometry Optimization
  ===> : Switching off AutoStart
         For restart on a previous wavefunction, please use MOREAD

WARNING: Found dipole moment calculation with XTB calculation
  ===> : Switching off dipole moment calculation


WARNING: otool_xtb not available.
         Trying xtb instead   ... done.
  ===> : Now using xtb as program name.


INFO   : the flag for use of LIBINT has been found!

================================================================================
                                       INPUT FILE
================================================================================
NAME = pre_opt.inp
|  1> ! XTB2 Opt
|  2> * xyz 0 1
|  3> C      1.557756   -2.743891    0.459842
|  4> N      1.192944   -1.366691    0.139576
|  5> C      2.026678   -0.319151   -0.093856
|  6> C      3.423034   -0.325737   -0.125316
|  7> C      4.084667    0.890453   -0.379568
|  8> C      3.351003    2.081190   -0.591662
|  9> Cl     4.199435    3.583974   -0.903433
| 10> C      1.944191    2.069630   -0.550349
| 11> C      1.317119    0.852943   -0.300149
| 12> C     -0.006246    0.510628   -0.178607
| 13> N     -1.125834    1.267676   -0.262565
| 14> C     -2.329538    0.647913   -0.071621
| 15> C     -3.523634    1.366912   -0.146921
| 16> C     -4.739761    0.709277    0.054636
| 17> C     -4.748919   -0.662520    0.330446
| 18> N     -3.581477   -1.357695    0.403144
| 19> C     -2.380372   -0.751392    0.212219
| 20> N     -1.224366   -1.476688    0.292786
| 21> C     -0.048063   -0.832054    0.092601
| 22> H      1.982395   -2.786975    1.484482
| 23> H      2.311561   -3.112907   -0.266862
| 24> H      0.667900   -3.406141    0.408066
| 25> H      3.985983   -1.234658    0.041149
| 26> H      5.166484    0.910363   -0.410298
| 27> H      1.368833    2.973624   -0.704517
| 28> H     -3.512681    2.428614   -0.359985
| 29> H     -5.670625    1.258541   -0.002003
| 30> H     -5.688467   -1.175239    0.487368
| 31> *
| 32> 
| 33>                          ****END OF INPUT****
================================================================================

                       *****************************
                       * Geometry Optimization Run *
                       *****************************

Geometry optimization settings:
Update method            Update   .... BFGS
Choice of coordinates    CoordSys .... Z-matrix Internals
Initial Hessian          InHess   .... Almoef's Model

Convergence Tolerances:
Energy Change            TolE     ....  5.0000e-06 Eh
Max. Gradient            TolMAXG  ....  3.0000e-04 Eh/bohr
RMS Gradient             TolRMSG  ....  1.0000e-04 Eh/bohr
Max. Displacement        TolMAXD  ....  4.0000e-03 bohr
RMS Displacement         TolRMSD  ....  2.0000e-03 bohr
Strict Convergence                ....  False
------------------------------------------------------------------------------
                        ORCA OPTIMIZATION COORDINATE SETUP
------------------------------------------------------------------------------

The optimization will be done in new redundant internal coordinates
Making redundant internal coordinates   ...  (new redundants) done
Evaluating the initial hessian          ...  (Almloef) done
Evaluating the coordinates              ...  done
Calculating the B-matrix                .... done
Calculating the G-matrix                .... done
Diagonalizing the G-matrix              .... done
Small eigenvalue found = 1.638e-02
The first mode is                       ....   78
The number of degrees of freedom        ....   78

    -----------------------------------------------------------------
                    Redundant Internal Coordinates


    -----------------------------------------------------------------
         Definition                    Initial Value    Approx d2E/dq
    -----------------------------------------------------------------
      1. B(N   1,C   0)                  1.4603         0.432306   
      2. B(C   2,N   1)                  1.3590         0.627043   
      3. B(C   3,C   2)                  1.3967         0.609548   
      4. B(C   4,C   3)                  1.4077         0.585538   
      5. B(C   5,C   4)                  1.4146         0.570803   
      6. B(Cl  6,C   5)                  1.7537         0.368557   
      7. B(C   7,C   5)                  1.4075         0.585966   
      8. B(C   8,C   7)                  1.3915         0.621466   
      9. B(C   8,C   2)                  1.3856         0.635022   
     10. B(C   9,C   8)                  1.3723         0.666737   
     11. B(N  10,C   9)                  1.3541         0.638433   
     12. B(C  11,N  10)                  1.3673         0.608296   
     13. B(C  12,C  11)                  1.3959         0.611434   
     14. B(C  13,C  12)                  1.3972         0.608562   
     15. B(C  14,C  13)                  1.3993         0.603857   
     16. B(N  15,C  14)                  1.3607         0.623217   
     17. B(C  16,N  15)                  1.3589         0.627242   
     18. B(C  16,C  11)                  1.4287         0.541981   
     19. B(N  17,C  16)                  1.3671         0.608766   
     20. B(C  18,N  17)                  1.3562         0.633548   
     21. B(C  18,C   9)                  1.3704         0.671352   
     22. B(C  18,N   1)                  1.3521         0.643223   
     23. B(H  19,C   0)                  1.1100         0.334612   
     24. B(H  20,C   0)                  1.1102         0.334373   
     25. B(H  21,C   0)                  1.1105         0.334038   
     26. B(H  22,C   3)                  1.0820         0.370818   
     27. B(H  23,C   4)                  1.0824         0.370246   
     28. B(H  24,C   7)                  1.0826         0.370032   
     29. B(H  25,C  12)                  1.0829         0.369582   
     30. B(H  26,C  13)                  1.0823         0.370411   
     31. B(H  27,C  14)                  1.0818         0.371135   
     32. A(H  19,C   0,H  21)          109.0540         0.284167   
     33. A(H  19,C   0,H  20)          109.3656         0.284211   
     34. A(N   1,C   0,H  20)          109.8498         0.326211   
     35. A(N   1,C   0,H  19)          109.5508         0.326250   
     36. A(N   1,C   0,H  21)          110.6119         0.326157   
     37. A(H  20,C   0,H  21)          108.3824         0.284135   
     38. A(C   0,N   1,C  18)          127.5786         0.404425   
     39. A(C   2,N   1,C  18)          104.6151         0.432123   
     40. A(C   0,N   1,C   2)          127.6887         0.402611   
     41. A(N   1,C   2,C   8)          111.3121         0.433967   
     42. A(C   3,C   2,C   8)          120.8373         0.434608   
     43. A(N   1,C   2,C   3)          127.8468         0.430785   
     44. A(C   2,C   3,C   4)          118.0273         0.428320   
     45. A(C   2,C   3,H  22)          121.3749         0.353646   
     46. A(C   4,C   3,H  22)          120.5978         0.351250   
     47. A(C   3,C   4,H  23)          119.3913         0.351158   
     48. A(C   3,C   4,C   5)          120.7011         0.423314   
     49. A(C   5,C   4,H  23)          119.9074         0.349651   
     50. A(C   4,C   5,C   7)          120.4696         0.423369   
     51. A(Cl  6,C   5,C   7)          119.7247         0.409319   
     52. A(C   4,C   5,Cl  6)          119.8055         0.407424   
     53. A(C   5,C   7,H  24)          121.3441         0.351168   
     54. A(C   5,C   7,C   8)          117.5750         0.429867   
     55. A(C   8,C   7,H  24)          121.0806         0.354681   
     56. A(C   7,C   8,C   9)          131.9609         0.439977   
     57. A(C   2,C   8,C   7)          122.3888         0.436126   
     58. A(C   2,C   8,C   9)          105.6428         0.441695   
     59. A(N  10,C   9,C  18)          122.3295         0.439764   
     60. A(C   8,C   9,C  18)          106.9385         0.446164   
     61. A(C   8,C   9,N  10)          130.7198         0.439217   
     62. A(C   9,N  10,C  11)          117.7625         0.429198   
     63. A(C  12,C  11,C  16)          118.9971         0.422668   
     64. A(N  10,C  11,C  16)          120.2000         0.419537   
     65. A(N  10,C  11,C  12)          120.8028         0.428682   
     66. A(C  13,C  12,H  25)          119.9110         0.353349   
     67. A(C  11,C  12,H  25)          120.4610         0.353631   
     68. A(C  11,C  12,C  13)          119.6280         0.431534   
     69. A(C  14,C  13,H  26)          120.1462         0.353019   
     70. A(C  12,C  13,H  26)          120.1458         0.353484   
     71. A(C  12,C  13,C  14)          119.7080         0.430569   
     72. A(C  13,C  14,H  27)          119.9289         0.353136   
     73. A(N  15,C  14,H  27)          119.6879         0.352841   
     74. A(C  13,C  14,N  15)          120.3832         0.429588   
     75. A(C  14,N  15,C  16)          121.5257         0.429703   
     76. A(N  15,C  16,N  17)          120.1593         0.427898   
     77. A(C  11,C  16,N  17)          120.0826         0.419595   
     78. A(C  11,C  16,N  15)          119.7580         0.421840   
     79. A(C  16,N  17,C  18)          118.2001         0.428666   
     80. A(N   1,C  18,C   9)          111.4862         0.440358   
     81. A(C   9,C  18,N  17)          121.4241         0.439155   
     82. A(N   1,C  18,N  17)          127.0858         0.432926   
     83. D(C   2,N   1,C   0,H  20)    -49.8063         0.015934   
     84. D(C  18,N   1,C   0,H  19)   -105.0937         0.015934   
     85. D(C  18,N   1,C   0,H  21)     15.1506         0.015934   
     86. D(C   2,N   1,C   0,H  21)   -169.4092         0.015934   
     87. D(C  18,N   1,C   0,H  20)    134.7535         0.015934   
     88. D(C   2,N   1,C   0,H  19)     70.3465         0.015934   
     89. D(C   8,C   2,N   1,C   0)   -176.9738         0.031895   
     90. D(C   3,C   2,N   1,C   0)      2.3170         0.031895   
     91. D(C   3,C   2,N   1,C  18)    178.5838         0.031895   
     92. D(C   8,C   2,N   1,C  18)     -0.7071         0.031895   
     93. D(H  22,C   3,C   2,C   8)    179.5864         0.025659   
     94. D(C   4,C   3,C   2,C   8)     -0.3374         0.025659   
     95. D(C   4,C   3,C   2,N   1)   -179.5680         0.025659   
     96. D(H  22,C   3,C   2,N   1)      0.3558         0.025659   
     97. D(C   5,C   4,C   3,C   2)      0.2049         0.023577   
     98. D(H  23,C   4,C   3,C   2)   -179.9138         0.023577   
     99. D(C   5,C   4,C   3,H  22)   -179.7195         0.023577   
    100. D(H  23,C   4,C   3,H  22)      0.1618         0.023577   
    101. D(C   7,C   5,C   4,H  23)   -179.8089         0.022353   
    102. D(C   7,C   5,C   4,C   3)      0.0719         0.022353   
    103. D(Cl  6,C   5,C   4,H  23)      0.0003         0.022353   
    104. D(Cl  6,C   5,C   4,C   3)    179.8811         0.022353   
    105. D(H  24,C   7,C   5,Cl  6)     -0.1949         0.023613   
    106. D(H  24,C   7,C   5,C   4)    179.6145         0.023613   
    107. D(C   8,C   7,C   5,Cl  6)    179.9747         0.023613   
    108. D(C   8,C   7,C   5,C   4)     -0.2159         0.023613   
    109. D(C   9,C   8,C   2,C   3)   -178.9168         0.027988   
    110. D(C   9,C   8,C   2,N   1)      0.4310         0.027988   
    111. D(C   7,C   8,C   2,C   3)      0.1970         0.027988   
    112. D(C   2,C   8,C   7,C   5)      0.0853         0.026733   
    113. D(C   7,C   8,C   2,N   1)    179.5448         0.027988   
    114. D(C   9,C   8,C   7,H  24)     -0.8932         0.026733   
    115. D(C   9,C   8,C   7,C   5)    178.9377         0.026733   
    116. D(C   2,C   8,C   7,H  24)   -179.7455         0.026733   
    117. D(C  18,C   9,C   8,C   7)   -178.9651         0.031067   
    118. D(N  10,C   9,C   8,C   7)     -0.2410         0.031067   
    119. D(C  18,C   9,C   8,C   2)      0.0285         0.031067   
    120. D(N  10,C   9,C   8,C   2)    178.7526         0.031067   
    121. D(C  11,N  10,C   9,C  18)     -0.2636         0.030037   
    122. D(C  11,N  10,C   9,C   8)   -178.8191         0.030037   
    123. D(C  16,C  11,N  10,C   9)      0.2930         0.027075   
    124. D(C  12,C  11,N  10,C   9)   -179.8549         0.027075   
    125. D(H  25,C  12,C  11,C  16)    179.9580         0.025827   
    126. D(H  25,C  12,C  11,N  10)      0.1041         0.025827   
    127. D(C  13,C  12,C  11,C  16)     -0.0354         0.025827   
    128. D(C  13,C  12,C  11,N  10)   -179.8893         0.025827   
    129. D(H  26,C  13,C  12,H  25)      0.0178         0.025571   
    130. D(H  26,C  13,C  12,C  11)   -179.9887         0.025571   
    131. D(C  14,C  13,C  12,H  25)   -179.9629         0.025571   
    132. D(C  14,C  13,C  12,C  11)      0.0305         0.025571   
    133. D(H  27,C  14,C  13,H  26)      0.0030         0.025155   
    134. D(H  27,C  14,C  13,C  12)    179.9837         0.025155   
    135. D(N  15,C  14,C  13,H  26)   -179.9810         0.025155   
    136. D(N  15,C  14,C  13,C  12)     -0.0003         0.025155   
    137. D(C  16,N  15,C  14,H  27)    179.9906         0.028517   
    138. D(C  16,N  15,C  14,C  13)     -0.0253         0.028517   
    139. D(N  17,C  16,N  15,C  14)    179.9452         0.028915   
    140. D(C  11,C  16,N  15,C  14)      0.0199         0.028915   
    141. D(N  17,C  16,C  11,C  12)   -179.9146         0.020076   
    142. D(N  17,C  16,C  11,N  10)     -0.0598         0.020076   
    143. D(N  15,C  16,C  11,C  12)      0.0107         0.020076   
    144. D(N  15,C  16,C  11,N  10)    179.8655         0.020076   
    145. D(C  18,N  17,C  16,C  11)     -0.2126         0.027120   
    146. D(C  18,N  17,C  16,N  15)    179.8624         0.027120   
    147. D(C   9,C  18,N  17,C  16)      0.2511         0.029544   
    148. D(N   1,C  18,N  17,C  16)    179.4660         0.029544   
    149. D(N  17,C  18,C   9,N  10)     -0.0111         0.031531   
    150. D(N  17,C  18,C   9,C   8)    178.8444         0.031531   
    151. D(N   1,C  18,C   9,N  10)   -179.3381         0.031531   
    152. D(N   1,C  18,C   9,C   8)     -0.4825         0.031531   
    153. D(N  17,C  18,N   1,C   2)   -178.5535         0.033704   
    154. D(N  17,C  18,N   1,C   0)     -2.2812         0.033704   
    155. D(C   9,C  18,N   1,C   2)      0.7266         0.033704   
    156. D(C   9,C  18,N   1,C   0)    176.9989         0.033704   
    -----------------------------------------------------------------

Number of atoms                         .... 28
Number of degrees of freedom            .... 156

         *************************************************************
         *                GEOMETRY OPTIMIZATION CYCLE   1            *
         *************************************************************
      -----------------------------------------------------------      
     |                   =====================                   |     
     |                           x T B                           |     
     |                   =====================                   |     
     |                         S. Grimme                         |     
     |          Mulliken Center for Theoretical Chemistry        |     
     |                    University of Bonn                     |     
      -----------------------------------------------------------      

   * xtb version 6.2.3 (830e466) compiled by 'ehlert@majestix' on 2020-03-16

   xtb is free software: you can redistribute it and/or modify it under
   the terms of the GNU Lesser General Public License as published by
   the Free Software Foundation, either version 3 of the License, or
   (at your option) any later version.
   
   xtb is distributed in the hope that it will be useful,
   but WITHOUT ANY WARRANTY; without even the implied warranty of
   MERCHANTABILITY or FITNESS FOR A PARTICULAR PURPOSE.  See the
   GNU Lesser General Public License for more details.
   
   Cite this work as:
   * S. Grimme, C. Bannwarth, P. Shushkov, J. Chem. Theory Comput., 2017,
     13, 1989-2009. DOI: 10.1021/acs.jctc.7b00118
   * C. Bannwarth, S. Ehlert and S. Grimme., J. Chem. Theory Comput., 2019,
     15, 1652-1671. DOI: 10.1021/acs.jctc.8b01176
   * P. Pracht, E. Caldeweyher, S. Ehlert, S. Grimme, ChemRxiv, 2019, preprint.
     DOI: 10.26434/chemrxiv.8326202.v1
   
   for DFT-D4:
   * E. Caldeweyher, C. Bannwarth and S. Grimme, J. Chem. Phys., 2017,
     147, 034112. DOI: 10.1063/1.4993215
   * E. Caldeweyher, S. Ehlert, A. Hansen, H. Neugebauer, S. Spicher,
     C. Bannwarth and S. Grimme, J. Chem. Phys., 2019, 150, 154122.
     DOI: 10.1063/1.5090222
   
   for sTDA-xTB:
   * S. Grimme and C. Bannwarth, J. Chem. Phys., 2016, 145, 054103.
     DOI: 10.1063/1.4959605
   
   in the mass-spec context:
   * V. Asgeirsson, C. Bauer and S. Grimme, Chem. Sci., 2017, 8, 4879.
     DOI: 10.1039/c7sc00601b
   
   for metadynamics refer to:
   * S. Grimme, J. Chem. Theory Comput., 2019, 155, 2847-2862
     DOI: 10.1021/acs.jctc.9b00143
   
   with help from (in alphabetical order)
   C. Bannwarth, F. Bohle, G. Brandenburg, E. Caldeweyher, M. Checinski,
   S. Dohm, S. Ehlert, S. Ehrlich, F. März, H. Neugebauer, J. Pisarek,
   P. Pracht, P. Shushkov, and S. Spicher.
   
 * started run on 2026/01/18 at 23:58:42.608     

           -------------------------------------------------
          |                Calculation Setup                |
           -------------------------------------------------

          program call               : /appl/orca_4.2.1/orca_4_2_1_linux_x86-64_openmpi314/xtb pre_opt_XTB.xyz --grad -c 0 -u 0 -P 1 --namespace pre_opt
          hostname                   : cnode13
          calculation namespace      : pre_opt
          coordinate file            : pre_opt_XTB.xyz
          omp threads                :                     1
          number of atoms            :                    28
          number of electrons        :                    92
          charge                     :                     0
          spin                       :                   0.0
          first test random number   :      0.92558403810237

########################################################################
[WARNING] Please study the warnings concerning your input carefully
-2- prog_main: XTBPATH is not set, using XTBHOME instead
-1- prog_main: XTBHOME is not set, using HOME instead
########################################################################
           ------------------------------------------------- 
          |                 G F N 2 - x T B                 |
          | Geometry, Frequencies, Noncovalent interactions |
          |            JCTC 2019 parametrisation            |
           ------------------------------------------------- 
             k(s)              :                1.8500
             k(p)              :                2.2300
             k(d)              :                2.2300
             k(f)              :                2.0000
             kEN (H0ij)        :               -2.0000
             D4 a1             :                0.5200
             D4 a2             :                5.0000
             D4 s6             :                1.0000
             D4 s8             :                2.7000
             D4 s9             :                5.0000
             alphaj            :                2.0000

  Z AO/shell   Hii/eV     exponent
  1     Wed Apr 25 08:07:45 CEST 2018   EN: 2.200 GM2: 0.406  GM3: 0.0800  RAES: 1.40
     1s    -10.707211    1.230000
  6     Wed Apr 25 08:07:45 CEST 2018   EN: 2.550 GM2: 0.538  GM3: 0.1500  RAES: 3.00
     2s    -13.970922    2.096432
     2p    -10.063292    1.800000
  7     Wed Apr 25 08:07:45 CEST 2018   EN: 3.040 GM2: 0.461  GM3:-0.0640  RAES: 1.90
     2s    -16.686243    2.339881
     2p    -12.523956    2.014332
 17     Mon Apr 23 14:09:22 CEST 2018   EN: 3.160 GM2: 0.249  GM3: 0.1495  RAES: 2.50
     3s    -29.278781    2.485265
     3p    -12.673758    2.199650
     3d     -0.240338    2.476089

           ------------------------------------------------- 
          |        Self-Consistent Charge Iterations        |
           ------------------------------------------------- 

          ...................................................
          :                      SETUP                      :
          :.................................................:
          :  # basis functions                  91          :
          :  # atomic orbitals                  90          :
          :  # shells                           48          :
          :  # electrons                        92          :
          :  max. iterations                   250          :
          :  Hamiltonian                  GFN2-xTB          :
          :  restarted?                      false          :
          :  GBSA solvation                  false          :
          :  PC potential                    false          :
          :  electronic temp.          300.0000000     K    :
          :  accuracy                    1.0000000          :
          :  -> integral cutoff          0.2500000E+02      :
          :  -> integral neglect         0.1000000E-07      :
          :  -> SCF convergence          0.1000000E-05 Eh   :
          :  -> wf. convergence          0.1000000E-03 e    :
          :  Broyden damping             0.4000000          :
          ...................................................

 iter      E             dE          RMSdq      gap      omega  full diag
   1    -51.4644189 -0.514644E+02  0.466E+00    1.38       0.0  T
   2    -51.5379783 -0.735594E-01  0.297E+00    1.08       1.0  T
   3    -51.5376740  0.304252E-03  0.152E+00    0.97       1.0  T
   4    -51.5516603 -0.139863E-01  0.427E-01    0.83       1.0  T
   5    -51.5576990 -0.603869E-02  0.148E-01    0.82       1.0  T
   6    -51.5581009 -0.401935E-03  0.568E-02    0.83       1.0  T
   7    -51.5581229 -0.219791E-04  0.312E-02    0.83       1.0  T
   8    -51.5581273 -0.438858E-05  0.216E-02    0.83       1.0  T
   9    -51.5581315 -0.418438E-05  0.154E-02    0.83       1.2  T
  10    -51.5581336 -0.209587E-05  0.102E-02    0.83       1.8  T
  11    -51.5581352 -0.159657E-05  0.377E-03    0.83       5.0  T
  12    -51.5581353 -0.138303E-06  0.163E-03    0.83      11.6  T
  13    -51.5581353 -0.216211E-07  0.706E-04    0.83      26.8  T
  14    -51.5581353 -0.789205E-08  0.371E-04    0.83      50.9  T

   *** convergence criteria satisfied after 14 iterations ***

         #    Occupation            Energy/Eh            Energy/eV
      -------------------------------------------------------------
         1        2.0000           -1.0555269             -28.7223
       ...           ...                  ...                  ...
        40        2.0000           -0.4205237             -11.4430
        41        2.0000           -0.4165262             -11.3343
        42        2.0000           -0.4155696             -11.3082
        43        2.0000           -0.4078114             -11.0971
        44        2.0000           -0.3884989             -10.5716
        45        2.0000           -0.3871131             -10.5339
        46        2.0000           -0.3482361              -9.4760 (HOMO)
        47        0.0000           -0.3177174              -8.6455 (LUMO)
        48                         -0.2629616              -7.1556
        49                         -0.2414482              -6.5701
        50                         -0.2326175              -6.3298
        51                         -0.2212020              -6.0192
       ...                                ...                  ...
        90                          0.7584814              20.6393
      -------------------------------------------------------------
                  HL-Gap            0.0305188 Eh            0.8305 eV
             Fermi-level           -0.3329767 Eh           -9.0608 eV

 SCC (total)                   0 d,  0 h,  0 min,  0.077 sec
 SCC setup                      ...        0 min,  0.000 sec (  0.595%)
 Dispersion                     ...        0 min,  0.001 sec (  0.650%)
 integral evaluation            ...        0 min,  0.028 sec ( 36.519%)
 zeroth order Hamiltonian       ...        0 min,  0.000 sec (  0.478%)
 iterations                     ...        0 min,  0.027 sec ( 35.173%)
 molecular gradient             ...        0 min,  0.020 sec ( 26.344%)
 printout                       ...        0 min,  0.000 sec (  0.176%)

         :::::::::::::::::::::::::::::::::::::::::::::::::::::
         ::                     SUMMARY                     ::
         :::::::::::::::::::::::::::::::::::::::::::::::::::::
         :: total energy             -50.828487214530 Eh    ::
         :: gradient norm              0.179928180153 Eh/a0 ::
         :: HOMO-LUMO gap              0.830458202683 eV    ::
         ::.................................................::
         :: SCC energy               -51.558135340647 Eh    ::
         :: -> isotropic ES            0.034362881743 Eh    ::
         :: -> anisotropic ES          0.002616154633 Eh    ::
         :: -> anisotropic XC          0.038465915952 Eh    ::
         :: -> dispersion             -0.033909688761 Eh    ::
         :: repulsion energy           0.729867870398 Eh    ::
         :: add. restraining           0.000000000000 Eh    ::
         :::::::::::::::::::::::::::::::::::::::::::::::::::::

           -------------------------------------------------
          |                Property Printout                |
           -------------------------------------------------

    * Orbital Energies and Occupations

         #    Occupation            Energy/Eh            Energy/eV
      -------------------------------------------------------------
         1        2.0000           -1.0555269             -28.7223
       ...           ...                  ...                  ...
        34        2.0000           -0.4680837             -12.7372
        35        2.0000           -0.4677128             -12.7271
        36        2.0000           -0.4594736             -12.5029
        37        2.0000           -0.4499252             -12.2431
        38        2.0000           -0.4430751             -12.0567
        39        2.0000           -0.4385213             -11.9328
        40        2.0000           -0.4205237             -11.4430
        41        2.0000           -0.4165262             -11.3343
        42        2.0000           -0.4155696             -11.3082
        43        2.0000           -0.4078114             -11.0971
        44        2.0000           -0.3884989             -10.5716
        45        2.0000           -0.3871131             -10.5339
        46        2.0000           -0.3482361              -9.4760 (HOMO)
        47        0.0000           -0.3177174              -8.6455 (LUMO)
        48                         -0.2629616              -7.1556
        49                         -0.2414482              -6.5701
        50                         -0.2326175              -6.3298
        51                         -0.2212020              -6.0192
        52                         -0.1598186              -4.3489
        53                         -0.1486518              -4.0450
        54                         -0.1095581              -2.9812
        55                         -0.0785431              -2.1373
        56                         -0.0292886              -0.7970
        57                          0.0141168               0.3841
       ...                                ...                  ...
        90                          0.7584814              20.6393
      -------------------------------------------------------------
                  HL-Gap            0.0305188 Eh            0.8305 eV
             Fermi-level           -0.3329767 Eh           -9.0608 eV

     #   Z        covCN         q      C6AA      α(0)
     1   6 C      3.677    -0.051    21.717     6.676
     2   7 N      2.812    -0.033    21.882     6.948
     3   6 C      3.260     0.050    25.754     8.200
     4   6 C      2.908    -0.051    29.276     8.872
     5   6 C      2.932    -0.037    28.913     8.818
     6   6 C      2.876     0.086    26.075     8.371
     7  17 Cl     0.937    -0.178   104.718    15.656
     8   6 C      2.932    -0.033    28.832     8.806
     9   6 C      3.148    -0.015    28.113     8.674
    10   6 C      3.111     0.075    26.179     8.382
    11   7 N      1.839    -0.246    27.262     7.738
    12   6 C      2.932     0.071    26.408     8.428
    13   6 C      2.915    -0.018    28.466     8.749
    14   6 C      2.906    -0.039    28.962     8.824
    15   6 C      2.852     0.062    26.606     8.454
    16   7 N      1.836    -0.232    26.922     7.689
    17   6 C      2.874     0.161    24.518     8.117
    18   7 N      1.838    -0.267    27.772     7.810
    19   6 C      3.200     0.135    24.552     8.074
    20   1 H      0.922     0.062     2.178     2.308
    21   1 H      0.922     0.062     2.172     2.305
    22   1 H      0.922     0.088     1.901     2.156
    23   1 H      0.925     0.050     2.315     2.379
    24   1 H      0.925     0.064     2.152     2.294
    25   1 H      0.925     0.076     2.016     2.220
    26   1 H      0.925     0.058     2.225     2.333
    27   1 H      0.925     0.043     2.412     2.429
    28   1 H      0.925     0.055     2.258     2.350

 Mol. C6AA /au·bohr⁶  :      13482.219680
 Mol. C8AA /au·bohr⁸  :     355758.536538
 Mol. α(0) /au        :        184.059627


Wiberg/Mayer (AO) data.
largest (>0.10) Wiberg bond orders for each atom
          total WBO             WBO to atom ...
     1  C   3.959        N    2 0.989    H   22 0.978    H   21 0.977    H   20 0.974
     2  N   3.577        C   19 1.188    C    3 1.141    C    1 0.989
     3  C   3.955        C    4 1.351    C    9 1.256    N    2 1.141
     4  C   3.982        C    5 1.458    C    3 1.351    H   23 0.967    C    8 0.107
     5  C   3.966        C    4 1.458    C    6 1.370    H   24 0.969
     6  C   3.906        C    8 1.431    C    5 1.370    Cl   7 0.970
     7  Cl  1.095        C    6 0.970
     8  C   3.974        C    6 1.431    C    9 1.347    H   25 0.964    C    4 0.107
     9  C   3.985        C    8 1.347    C    3 1.256    C   10 1.169
    10  C   3.985        N   11 1.413    C   19 1.178    C    9 1.169
    11  N   3.041        C   10 1.413    C   12 1.309    N   18 0.112
    12  C   3.974        N   11 1.309    C   13 1.296    C   17 1.177
    13  C   3.973        C   14 1.512    C   12 1.296    H   26 0.966    N   16 0.119
    14  C   3.977        C   13 1.512    C   15 1.353    H   27 0.969
    15  C   3.960        N   16 1.495    C   14 1.353    H   28 0.964
    16  N   3.048        C   15 1.495    C   17 1.302    C   13 0.119
    17  C   3.965        N   18 1.304    N   16 1.302    C   12 1.177
    18  N   3.030        C   19 1.388    C   17 1.304    N   11 0.112
    19  C   3.966        N   18 1.388    N    2 1.188    C   10 1.178
    20  H   0.994        C    1 0.974
    21  H   0.995        C    1 0.977
    22  H   0.992        C    1 0.978
    23  H   0.997        C    4 0.967
    24  H   0.996        C    5 0.969
    25  H   0.994        C    8 0.964
    26  H   0.997        C   13 0.966
    27  H   0.998        C   14 0.969
    28  H   0.996        C   15 0.964

molecular dipole:
                 x           y           z       tot (Debye)
 q only:        0.284      -1.029       0.191
   full:        0.385      -0.528       0.095       1.678
molecular quadrupole (traceless):
                xx          xy          yy          xz          yz          zz
 q only:        6.132     -20.212      -4.019       3.479       1.412      -2.113
  q+dip:       12.877     -22.708      -6.180       3.533       1.076      -6.697
   full:        9.783     -22.056      -8.541       3.807       2.637      -1.242


           -------------------------------------------------
          | TOTAL ENERGY              -50.828487214530 Eh   |
          | GRADIENT NORM               0.179928180153 Eh/α |
          | HOMO-LUMO GAP               0.830458202683 eV   |
           -------------------------------------------------

------------------------------------------------------------------------
 * finished run on 2026/01/18 at 23:58:43.079     
------------------------------------------------------------------------
 total:
 * wall-time:     0 d,  0 h,  0 min,  0.470 sec
 *  cpu-time:     0 d,  0 h,  0 min,  0.115 sec
 * ratio c/w:     0.245 speedup
 SCF:
 * wall-time:     0 d,  0 h,  0 min,  0.078 sec
 *  cpu-time:     0 d,  0 h,  0 min,  0.078 sec
 * ratio c/w:     0.998 speedup


-------------------------   --------------------
FINAL SINGLE POINT ENERGY         0.000000000000
-------------------------   --------------------

------------------------------------------------------------------------------
                         ORCA GEOMETRY RELAXATION STEP
------------------------------------------------------------------------------

Reading the OPT-File                    .... done
Getting information on internals        .... done
Copying old internal coords+grads       .... done
Making the new internal coordinates     .... (new redundants).... done
Validating the new internal coordinates .... (new redundants).... done
Calculating the B-matrix                .... done
Calculating the G,G- and P matrices     .... done
Transforming gradient to internals      .... done
Projecting the internal gradient        .... done
Number of atoms                         ....  28
Number of internal coordinates          .... 156
Current Energy                          ....     0.000000000 Eh
Current gradient norm                   ....     0.179928180 Eh/bohr
Maximum allowed component of the step   ....  0.300
Current trust radius                    ....  0.300
Evaluating the initial hessian          ....  (Almloef) done
Projecting the Hessian                  .... done
Forming the augmented Hessian           .... done
Diagonalizing the augmented Hessian     .... done
Last element of RFO vector              ....  0.969809476
Lowest eigenvalues of augmented Hessian:
 -0.036548879  0.015941546  0.022829398  0.023157956  0.023227548
Length of the computed step             ....  0.251455426
The final length of the internal step   ....  0.251455426
Converting the step to cartesian space:
 Initial RMS(Int)=    0.0201325466
Transforming coordinates:
 Iter   0:  RMS(Cart)=    0.0671028741 RMS(Int)=    0.8714663370
 Iter   1:  RMS(Cart)=    0.0010935972 RMS(Int)=    0.5030547961
 Iter   2:  RMS(Cart)=    0.0000245499 RMS(Int)=    0.0000109576
 Iter   3:  RMS(Cart)=    0.0000007310 RMS(Int)=    0.0000002786
 Iter   4:  RMS(Cart)=    0.0000000238 RMS(Int)=    0.0000000113
done
Storing new coordinates                 .... done

                                .--------------------.
          ----------------------|Geometry convergence|-------------------------
          Item                value                   Tolerance       Converged
          ---------------------------------------------------------------------
          RMS gradient        0.0118893364            0.0001000000      NO
          MAX gradient        0.0540697512            0.0003000000      NO
          RMS step            0.0201325466            0.0020000000      NO
          MAX step            0.0798195433            0.0040000000      NO
          ........................................................
          Max(Bonds)      0.0422      Max(Angles)    2.50
          Max(Dihed)        0.68      Max(Improp)    0.00
          ---------------------------------------------------------------------

The optimization has not yet converged - more geometry cycles are needed


    ---------------------------------------------------------------------------
                         Redundant Internal Coordinates
                            (Angstroem and degrees)

        Definition                    Value    dE/dq     Step     New-Value
    ----------------------------------------------------------------------------
     1. B(N   1,C   0)                1.4603  0.019690 -0.0222    1.4380   
     2. B(C   2,N   1)                1.3590 -0.026022  0.0191    1.3782   
     3. B(C   3,C   2)                1.3967  0.007003 -0.0054    1.3913   
     4. B(C   4,C   3)                1.4077  0.021738 -0.0191    1.3885   
     5. B(C   5,C   4)                1.4146  0.016876 -0.0157    1.3989   
     6. B(Cl  6,C   5)                1.7537  0.012376 -0.0162    1.7375   
     7. B(C   7,C   5)                1.4075  0.022160 -0.0192    1.3883   
     8. B(C   8,C   7)                1.3915  0.002756 -0.0016    1.3899   
     9. B(C   8,C   2)                1.3856 -0.025278  0.0207    1.4062   
    10. B(C   9,C   8)                1.3723 -0.054070  0.0422    1.4145   
    11. B(N  10,C   9)                1.3541  0.038916 -0.0300    1.3241   
    12. B(C  11,N  10)                1.3673  0.020845 -0.0173    1.3500   
    13. B(C  12,C  11)                1.3959  0.000944  0.0001    1.3960   
    14. B(C  13,C  12)                1.3972  0.025277 -0.0204    1.3768   
    15. B(C  14,C  13)                1.3993 -0.002868  0.0018    1.4011   
    16. B(N  15,C  14)                1.3607  0.051581 -0.0422    1.3185   
    17. B(C  16,N  15)                1.3589  0.025120 -0.0204    1.3385   
    18. B(C  16,C  11)                1.4287 -0.012581  0.0112    1.4400   
    19. B(N  17,C  16)                1.3671  0.029836 -0.0250    1.3421   
    20. B(C  18,N  17)                1.3562  0.040432 -0.0317    1.3245   
    21. B(C  18,C   9)                1.3704 -0.053012  0.0412    1.4117   
    22. B(C  18,N   1)                1.3521 -0.009195  0.0063    1.3584   
    23. B(H  19,C   0)                1.1100  0.010939 -0.0156    1.0944   
    24. B(H  20,C   0)                1.1102  0.011955 -0.0171    1.0931   
    25. B(H  21,C   0)                1.1105  0.014618 -0.0209    1.0896   
    26. B(H  22,C   3)                1.0820  0.003255 -0.0042    1.0778   
    27. B(H  23,C   4)                1.0824  0.003474 -0.0045    1.0779   
    28. B(H  24,C   7)                1.0826  0.004170 -0.0054    1.0772   
    29. B(H  25,C  12)                1.0829  0.002324 -0.0030    1.0799   
    30. B(H  26,C  13)                1.0823  0.001864 -0.0024    1.0799   
    31. B(H  27,C  14)                1.0818  0.003780 -0.0049    1.0769   
    32. A(H  19,C   0,H  21)          109.05 -0.001936    0.22    109.28   
    33. A(H  19,C   0,H  20)          109.37  0.000063    0.12    109.49   
    34. A(N   1,C   0,H  20)          109.85  0.000201   -0.00    109.85   
    35. A(N   1,C   0,H  19)          109.55 -0.002607    0.42    109.97   
    36. A(N   1,C   0,H  21)          110.61  0.008036   -1.36    109.26   
    37. A(H  20,C   0,H  21)          108.38 -0.003830    0.61    109.00   
    38. A(C   0,N   1,C  18)          127.58  0.011149   -1.24    126.33   
    39. A(C   2,N   1,C  18)          104.62 -0.018458    2.01    106.63   
    40. A(C   0,N   1,C   2)          127.69  0.007300   -0.75    126.94   
    41. A(N   1,C   2,C   8)          111.31  0.002255   -0.53    110.78   
    42. A(C   3,C   2,C   8)          120.84  0.004478   -0.28    120.56   
    43. A(N   1,C   2,C   3)          127.85 -0.006736    0.82    128.66   
    44. A(C   2,C   3,C   4)          118.03 -0.000059   -0.04    117.99   
    45. A(C   2,C   3,H  22)          121.37 -0.001107    0.19    121.56   
    46. A(C   4,C   3,H  22)          120.60  0.001166   -0.15    120.45   
    47. A(C   3,C   4,H  23)          119.39  0.001415   -0.05    119.34   
    48. A(C   3,C   4,C   5)          120.70 -0.004895    0.40    121.10   
    49. A(C   5,C   4,H  23)          119.91  0.003480   -0.35    119.55   
    50. A(C   4,C   5,C   7)          120.47 -0.009050    0.95    121.42   
    51. A(Cl  6,C   5,C   7)          119.72  0.003258   -0.31    119.41   
    52. A(C   4,C   5,Cl  6)          119.81  0.005792   -0.64    119.16   
    53. A(C   5,C   7,H  24)          121.34 -0.001447    0.17    121.52   
    54. A(C   5,C   7,C   8)          117.58  0.001749   -0.18    117.40   
    55. A(C   8,C   7,H  24)          121.08 -0.000302    0.00    121.08   
    56. A(C   7,C   8,C   9)          131.96 -0.009916    0.95    132.91   
    57. A(C   2,C   8,C   7)          122.39  0.007776   -0.86    121.53   
    58. A(C   2,C   8,C   9)          105.64  0.002137   -0.09    105.55   
    59. A(N  10,C   9,C  18)          122.33  0.000007    0.02    122.35   
    60. A(C   8,C   9,C  18)          106.94  0.005581   -0.36    106.58   
    61. A(C   8,C   9,N  10)          130.72 -0.005593    0.35    131.06   
    62. A(C   9,N  10,C  11)          117.76  0.018191   -2.08    115.68   
    63. A(C  12,C  11,C  16)          119.00  0.007539   -0.70    118.30   
    64. A(N  10,C  11,C  16)          120.20 -0.013531    1.50    121.70   
    65. A(N  10,C  11,C  12)          120.80  0.005992   -0.80    120.00   
    66. A(C  13,C  12,H  25)          119.91 -0.007103    0.87    120.78   
    67. A(C  11,C  12,H  25)          120.46 -0.001878    0.10    120.56   
    68. A(C  11,C  12,C  13)          119.63  0.008981   -0.97    118.66   
    69. A(C  14,C  13,H  26)          120.15 -0.000921    0.14    120.29   
    70. A(C  12,C  13,H  26)          120.15  0.000061    0.00    120.15   
    71. A(C  12,C  13,C  14)          119.71  0.000860   -0.14    119.56   
    72. A(C  13,C  14,H  27)          119.93  0.001464    0.06    119.99   
    73. A(N  15,C  14,H  27)          119.69  0.017436   -2.29    117.40   
    74. A(C  13,C  14,N  15)          120.38 -0.018900    2.22    122.61   
    75. A(C  14,N  15,C  16)          121.53  0.011384   -1.70    119.83   
    76. A(N  15,C  16,N  17)          120.16  0.020679   -2.50    117.66   
    77. A(C  11,C  16,N  17)          120.08 -0.010815    1.20    121.29   
    78. A(C  11,C  16,N  15)          119.76 -0.009864    1.29    121.05   
    79. A(C  16,N  17,C  18)          118.20  0.020104   -2.47    115.73   
    80. A(N   1,C  18,C   9)          111.49  0.008485   -1.03    110.46   
    81. A(C   9,C  18,N  17)          121.42 -0.013955    1.83    123.25   
    82. A(N   1,C  18,N  17)          127.09  0.005466   -0.80    126.29   
    83. D(C   2,N   1,C   0,H  20)    -49.81  0.000422   -0.24    -50.05   
    84. D(C  18,N   1,C   0,H  19)   -105.09 -0.000070   -0.28   -105.37   
    85. D(C  18,N   1,C   0,H  21)     15.15  0.000920   -0.59     14.56   
    86. D(C   2,N   1,C   0,H  21)   -169.41 -0.000012   -0.14   -169.55   
    87. D(C  18,N   1,C   0,H  20)    134.75  0.001354   -0.68    134.07   
    88. D(C   2,N   1,C   0,H  19)     70.35 -0.001001    0.17     70.52   
    89. D(C   8,C   2,N   1,C   0)   -176.97  0.000103   -0.28   -177.26   
    90. D(C   3,C   2,N   1,C   0)      2.32 -0.000095   -0.11      2.21   
    91. D(C   3,C   2,N   1,C  18)    178.58  0.000017    0.16    178.74   
    92. D(C   8,C   2,N   1,C  18)     -0.71  0.000215   -0.02     -0.72   
    93. D(H  22,C   3,C   2,C   8)    179.59 -0.000026    0.01    179.60   
    94. D(C   4,C   3,C   2,C   8)     -0.34 -0.000021    0.03     -0.31   
    95. D(C   4,C   3,C   2,N   1)   -179.57  0.000218   -0.16   -179.73   
    96. D(H  22,C   3,C   2,N   1)      0.36  0.000214   -0.18      0.18   
    97. D(C   5,C   4,C   3,C   2)      0.20  0.000009   -0.03      0.18   
    98. D(H  23,C   4,C   3,C   2)   -179.91  0.000016   -0.04   -179.95   
    99. D(C   5,C   4,C   3,H  22)   -179.72  0.000016   -0.01   -179.73   
   100. D(H  23,C   4,C   3,H  22)      0.16  0.000022   -0.02      0.14   
   101. D(C   7,C   5,C   4,H  23)   -179.81 -0.000017   -0.00   -179.81   
   102. D(C   7,C   5,C   4,C   3)      0.07 -0.000014   -0.01      0.06   
   103. D(Cl  6,C   5,C   4,H  23)      0.00 -0.000022    0.02      0.02   
   104. D(Cl  6,C   5,C   4,C   3)    179.88 -0.000019    0.02    179.90   
   105. D(H  24,C   7,C   5,Cl  6)     -0.19 -0.000053    0.06     -0.13   
   106. D(H  24,C   7,C   5,C   4)    179.61 -0.000053    0.09    179.70   
   107. D(C   8,C   7,C   5,Cl  6)    179.97 -0.000039    0.03    180.00   
   108. D(C   8,C   7,C   5,C   4)     -0.22 -0.000039    0.05     -0.17   
   109. D(C   9,C   8,C   2,C   3)   -178.92  0.000246   -0.16   -179.07   
   110. D(C   9,C   8,C   2,N   1)      0.43 -0.000027    0.01      0.44   
   111. D(C   7,C   8,C   2,C   3)      0.20 -0.000031    0.01      0.21   
   112. D(C   2,C   8,C   7,C   5)      0.09  0.000082   -0.05      0.03   
   113. D(C   7,C   8,C   2,N   1)    179.54 -0.000304    0.18    179.73   
   114. D(C   9,C   8,C   7,H  24)     -0.89 -0.000071    0.11     -0.78   
   115. D(C   9,C   8,C   7,C   5)    178.94 -0.000086    0.15    179.09   
   116. D(C   2,C   8,C   7,H  24)   -179.75  0.000098   -0.09   -179.84   
   117. D(C  18,C   9,C   8,C   7)   -178.97  0.000123   -0.19   -179.16   
   118. D(N  10,C   9,C   8,C   7)     -0.24 -0.000112    0.08     -0.16   
   119. D(C  18,C   9,C   8,C   2)      0.03  0.000051   -0.03      0.00   
   120. D(N  10,C   9,C   8,C   2)    178.75 -0.000183    0.25    179.00   
   121. D(C  11,N  10,C   9,C  18)     -0.26 -0.000002   -0.01     -0.28   
   122. D(C  11,N  10,C   9,C   8)   -178.82  0.000221   -0.32   -179.14   
   123. D(C  16,C  11,N  10,C   9)      0.29  0.000010   -0.04      0.25   
   124. D(C  12,C  11,N  10,C   9)   -179.85  0.000039   -0.04   -179.89   
   125. D(H  25,C  12,C  11,C  16)    179.96 -0.000044    0.04    180.00   
   126. D(H  25,C  12,C  11,N  10)      0.10 -0.000042    0.03      0.14   
   127. D(C  13,C  12,C  11,C  16)     -0.04 -0.000016    0.01     -0.02   
   128. D(C  13,C  12,C  11,N  10)   -179.89 -0.000014    0.00   -179.89   
   129. D(H  26,C  13,C  12,H  25)      0.02  0.000002   -0.00      0.01   
   130. D(H  26,C  13,C  12,C  11)   -179.99 -0.000025    0.02   -179.96   
   131. D(C  14,C  13,C  12,H  25)   -179.96  0.000042   -0.04   -180.01   
   132. D(C  14,C  13,C  12,C  11)      0.03  0.000014   -0.01      0.02   
   133. D(H  27,C  14,C  13,H  26)      0.00 -0.000001   -0.00      0.00   
   134. D(H  27,C  14,C  13,C  12)    179.98 -0.000041    0.04    180.02   
   135. D(N  15,C  14,C  13,H  26)   -179.98  0.000035   -0.03   -180.01   
   136. D(N  15,C  14,C  13,C  12)     -0.00 -0.000004    0.01      0.01   
   137. D(C  16,N  15,C  14,H  27)    179.99  0.000029   -0.03    179.96   
   138. D(C  16,N  15,C  14,C  13)     -0.03 -0.000010    0.01     -0.02   
   139. D(N  17,C  16,N  15,C  14)    179.95  0.000053   -0.06    179.88   
   140. D(C  11,C  16,N  15,C  14)      0.02  0.000014   -0.01      0.01   
   141. D(N  17,C  16,C  11,C  12)   -179.91 -0.000063    0.06   -179.86   
   142. D(N  17,C  16,C  11,N  10)     -0.06 -0.000035    0.06     -0.00   
   143. D(N  15,C  16,C  11,C  12)      0.01 -0.000000    0.00      0.01   
   144. D(N  15,C  16,C  11,N  10)    179.87  0.000027    0.00    179.87   
   145. D(C  18,N  17,C  16,C  11)     -0.21  0.000041   -0.02     -0.23   
   146. D(C  18,N  17,C  16,N  15)    179.86  0.000001    0.03    179.89   
   147. D(C   9,C  18,N  17,C  16)      0.25 -0.000008   -0.03      0.22   
   148. D(N   1,C  18,N  17,C  16)    179.47 -0.000359    0.29    179.76   
   149. D(N  17,C  18,C   9,N  10)     -0.01 -0.000014    0.05      0.04   
   150. D(N  17,C  18,C   9,C   8)    178.84 -0.000320    0.30    179.15   
   151. D(N   1,C  18,C   9,N  10)   -179.34  0.000278   -0.22   -179.56   
   152. D(N   1,C  18,C   9,C   8)     -0.48 -0.000029    0.03     -0.45   
   153. D(N  17,C  18,N   1,C   2)   -178.55  0.000359   -0.32   -178.88   
   154. D(N  17,C  18,N   1,C   0)     -2.28  0.000279   -0.03     -2.31   
   155. D(C   9,C  18,N   1,C   2)      0.73 -0.000112   -0.01      0.72   
   156. D(C   9,C  18,N   1,C   0)    177.00 -0.000192    0.29    177.28   
    ----------------------------------------------------------------------------

         *************************************************************
         *                GEOMETRY OPTIMIZATION CYCLE   2            *
         *************************************************************
      -----------------------------------------------------------      
     |                   =====================                   |     
     |                           x T B                           |     
     |                   =====================                   |     
     |                         S. Grimme                         |     
     |          Mulliken Center for Theoretical Chemistry        |     
     |                    University of Bonn                     |     
      -----------------------------------------------------------      

   * xtb version 6.2.3 (830e466) compiled by 'ehlert@majestix' on 2020-03-16

   xtb is free software: you can redistribute it and/or modify it under
   the terms of the GNU Lesser General Public License as published by
   the Free Software Foundation, either version 3 of the License, or
   (at your option) any later version.
   
   xtb is distributed in the hope that it will be useful,
   but WITHOUT ANY WARRANTY; without even the implied warranty of
   MERCHANTABILITY or FITNESS FOR A PARTICULAR PURPOSE.  See the
   GNU Lesser General Public License for more details.
   
   Cite this work as:
   * S. Grimme, C. Bannwarth, P. Shushkov, J. Chem. Theory Comput., 2017,
     13, 1989-2009. DOI: 10.1021/acs.jctc.7b00118
   * C. Bannwarth, S. Ehlert and S. Grimme., J. Chem. Theory Comput., 2019,
     15, 1652-1671. DOI: 10.1021/acs.jctc.8b01176
   * P. Pracht, E. Caldeweyher, S. Ehlert, S. Grimme, ChemRxiv, 2019, preprint.
     DOI: 10.26434/chemrxiv.8326202.v1
   
   for DFT-D4:
   * E. Caldeweyher, C. Bannwarth and S. Grimme, J. Chem. Phys., 2017,
     147, 034112. DOI: 10.1063/1.4993215
   * E. Caldeweyher, S. Ehlert, A. Hansen, H. Neugebauer, S. Spicher,
     C. Bannwarth and S. Grimme, J. Chem. Phys., 2019, 150, 154122.
     DOI: 10.1063/1.5090222
   
   for sTDA-xTB:
   * S. Grimme and C. Bannwarth, J. Chem. Phys., 2016, 145, 054103.
     DOI: 10.1063/1.4959605
   
   in the mass-spec context:
   * V. Asgeirsson, C. Bauer and S. Grimme, Chem. Sci., 2017, 8, 4879.
     DOI: 10.1039/c7sc00601b
   
   for metadynamics refer to:
   * S. Grimme, J. Chem. Theory Comput., 2019, 155, 2847-2862
     DOI: 10.1021/acs.jctc.9b00143
   
   with help from (in alphabetical order)
   C. Bannwarth, F. Bohle, G. Brandenburg, E. Caldeweyher, M. Checinski,
   S. Dohm, S. Ehlert, S. Ehrlich, F. März, H. Neugebauer, J. Pisarek,
   P. Pracht, P. Shushkov, and S. Spicher.
   
 * started run on 2026/01/18 at 23:58:44.468     

           -------------------------------------------------
          |                Calculation Setup                |
           -------------------------------------------------

          program call               : /appl/orca_4.2.1/orca_4_2_1_linux_x86-64_openmpi314/xtb pre_opt_XTB.xyz --grad -c 0 -u 0 -P 1 --namespace pre_opt
          hostname                   : cnode13
          calculation namespace      : pre_opt
          coordinate file            : pre_opt_XTB.xyz
          omp threads                :                     1
          number of atoms            :                    28
          number of electrons        :                    92
          charge                     :                     0
          spin                       :                   0.0
          first test random number   :      0.91506914644543

########################################################################
[WARNING] Please study the warnings concerning your input carefully
-2- prog_main: XTBPATH is not set, using XTBHOME instead
-1- prog_main: XTBHOME is not set, using HOME instead
########################################################################
           ------------------------------------------------- 
          |                 G F N 2 - x T B                 |
          | Geometry, Frequencies, Noncovalent interactions |
          |            JCTC 2019 parametrisation            |
           ------------------------------------------------- 
             k(s)              :                1.8500
             k(p)              :                2.2300
             k(d)              :                2.2300
             k(f)              :                2.0000
             kEN (H0ij)        :               -2.0000
             D4 a1             :                0.5200
             D4 a2             :                5.0000
             D4 s6             :                1.0000
             D4 s8             :                2.7000
             D4 s9             :                5.0000
             alphaj            :                2.0000

  Z AO/shell   Hii/eV     exponent
  1     Wed Apr 25 08:07:45 CEST 2018   EN: 2.200 GM2: 0.406  GM3: 0.0800  RAES: 1.40
     1s    -10.707211    1.230000
  6     Wed Apr 25 08:07:45 CEST 2018   EN: 2.550 GM2: 0.538  GM3: 0.1500  RAES: 3.00
     2s    -13.970922    2.096432
     2p    -10.063292    1.800000
  7     Wed Apr 25 08:07:45 CEST 2018   EN: 3.040 GM2: 0.461  GM3:-0.0640  RAES: 1.90
     2s    -16.686243    2.339881
     2p    -12.523956    2.014332
 17     Mon Apr 23 14:09:22 CEST 2018   EN: 3.160 GM2: 0.249  GM3: 0.1495  RAES: 2.50
     3s    -29.278781    2.485265
     3p    -12.673758    2.199650
     3d     -0.240338    2.476089

           ------------------------------------------------- 
          |        Self-Consistent Charge Iterations        |
           ------------------------------------------------- 

          ...................................................
          :                      SETUP                      :
          :.................................................:
          :  # basis functions                  91          :
          :  # atomic orbitals                  90          :
          :  # shells                           48          :
          :  # electrons                        92          :
          :  max. iterations                   250          :
          :  Hamiltonian                  GFN2-xTB          :
          :  restarted?                      false          :
          :  GBSA solvation                  false          :
          :  PC potential                    false          :
          :  electronic temp.          300.0000000     K    :
          :  accuracy                    1.0000000          :
          :  -> integral cutoff          0.2500000E+02      :
          :  -> integral neglect         0.1000000E-07      :
          :  -> SCF convergence          0.1000000E-05 Eh   :
          :  -> wf. convergence          0.1000000E-03 e    :
          :  Broyden damping             0.4000000          :
          ...................................................

 iter      E             dE          RMSdq      gap      omega  full diag
   1    -51.5163428 -0.515163E+02  0.460E+00    1.55       0.0  T
   2    -51.5916199 -0.752771E-01  0.295E+00    1.29       1.0  T
   3    -51.5932033 -0.158342E-02  0.151E+00    1.19       1.0  T
   4    -51.6057832 -0.125799E-01  0.422E-01    1.06       1.0  T
   5    -51.6119056 -0.612237E-02  0.135E-01    1.04       1.0  T
   6    -51.6122425 -0.336869E-03  0.507E-02    1.06       1.0  T
   7    -51.6122663 -0.238314E-04  0.243E-02    1.05       1.0  T
   8    -51.6122686 -0.230040E-05  0.145E-02    1.05       1.3  T
   9    -51.6122704 -0.180226E-05  0.961E-03    1.05       2.0  T
  10    -51.6122711 -0.664536E-06  0.710E-03    1.05       2.7  T
  11    -51.6122718 -0.687554E-06  0.327E-03    1.05       5.8  T
  12    -51.6122719 -0.121994E-06  0.146E-03    1.05      13.0  T
  13    -51.6122719 -0.279081E-07  0.615E-04    1.05      30.7  T
  14    -51.6122719 -0.541452E-08  0.275E-04    1.05      68.6  T

   *** convergence criteria satisfied after 14 iterations ***

         #    Occupation            Energy/Eh            Energy/eV
      -------------------------------------------------------------
         1        2.0000           -1.0568580             -28.7586
       ...           ...                  ...                  ...
        40        2.0000           -0.4236844             -11.5290
        41        2.0000           -0.4210097             -11.4563
        42        2.0000           -0.4196227             -11.4185
        43        2.0000           -0.4071887             -11.0802
        44        2.0000           -0.3899807             -10.6119
        45        2.0000           -0.3866932             -10.5225
        46        2.0000           -0.3499069              -9.5215 (HOMO)
        47                         -0.3112141              -8.4686 (LUMO)
        48                         -0.2611379              -7.1059
        49                         -0.2374662              -6.4618
        50                         -0.2316312              -6.3030
        51                         -0.2171918              -5.9101
       ...                                ...                  ...
        90                          0.7188890              19.5620
      -------------------------------------------------------------
                  HL-Gap            0.0386928 Eh            1.0529 eV
             Fermi-level           -0.3305605 Eh           -8.9950 eV

 SCC (total)                   0 d,  0 h,  0 min,  0.062 sec
 SCC setup                      ...        0 min,  0.000 sec (  0.587%)
 Dispersion                     ...        0 min,  0.000 sec (  0.665%)
 integral evaluation            ...        0 min,  0.022 sec ( 35.466%)
 zeroth order Hamiltonian       ...        0 min,  0.000 sec (  0.485%)
 iterations                     ...        0 min,  0.021 sec ( 34.132%)
 molecular gradient             ...        0 min,  0.018 sec ( 28.400%)
 printout                       ...        0 min,  0.000 sec (  0.192%)

         :::::::::::::::::::::::::::::::::::::::::::::::::::::
         ::                     SUMMARY                     ::
         :::::::::::::::::::::::::::::::::::::::::::::::::::::
         :: total energy             -50.851819083397 Eh    ::
         :: gradient norm              0.065517431044 Eh/a0 ::
         :: HOMO-LUMO gap              1.052885748827 eV    ::
         ::.................................................::
         :: SCC energy               -51.612271914094 Eh    ::
         :: -> isotropic ES            0.032319022972 Eh    ::
         :: -> anisotropic ES          0.002213949566 Eh    ::
         :: -> anisotropic XC          0.036493432576 Eh    ::
         :: -> dispersion             -0.034244702203 Eh    ::
         :: repulsion energy           0.760667664988 Eh    ::
         :: add. restraining           0.000000000000 Eh    ::
         :::::::::::::::::::::::::::::::::::::::::::::::::::::

           -------------------------------------------------
          |                Property Printout                |
           -------------------------------------------------

    * Orbital Energies and Occupations

         #    Occupation            Energy/Eh            Energy/eV
      -------------------------------------------------------------
         1        2.0000           -1.0568580             -28.7586
       ...           ...                  ...                  ...
        34        2.0000           -0.4700209             -12.7899
        35        2.0000           -0.4675065             -12.7215
        36        2.0000           -0.4577329             -12.4555
        37        2.0000           -0.4485589             -12.2059
        38        2.0000           -0.4437887             -12.0761
        39        2.0000           -0.4394949             -11.9593
        40        2.0000           -0.4236844             -11.5290
        41        2.0000           -0.4210097             -11.4563
        42        2.0000           -0.4196227             -11.4185
        43        2.0000           -0.4071887             -11.0802
        44        2.0000           -0.3899807             -10.6119
        45        2.0000           -0.3866932             -10.5225
        46        2.0000           -0.3499069              -9.5215 (HOMO)
        47                         -0.3112141              -8.4686 (LUMO)
        48                         -0.2611379              -7.1059
        49                         -0.2374662              -6.4618
        50                         -0.2316312              -6.3030
        51                         -0.2171918              -5.9101
        52                         -0.1588695              -4.3231
        53                         -0.1433849              -3.9017
        54                         -0.1078468              -2.9347
        55                         -0.0781106              -2.1255
        56                         -0.0130984              -0.3564
        57                          0.0134666               0.3664
       ...                                ...                  ...
        90                          0.7188890              19.5620
      -------------------------------------------------------------
                  HL-Gap            0.0386928 Eh            1.0529 eV
             Fermi-level           -0.3305605 Eh           -8.9950 eV

     #   Z        covCN         q      C6AA      α(0)
     1   6 C      3.688    -0.053    21.722     6.671
     2   7 N      2.792    -0.038    21.979     6.963
     3   6 C      3.146     0.046    26.710     8.455
     4   6 C      2.910    -0.048    29.196     8.860
     5   6 C      2.951    -0.037    28.925     8.821
     6   6 C      2.886     0.090    25.990     8.358
     7  17 Cl     0.959    -0.177   104.709    15.655
     8   6 C      2.943    -0.033    28.826     8.806
     9   6 C      3.081    -0.018    28.378     8.733
    10   6 C      3.083     0.072    26.298     8.407
    11   7 N      1.840    -0.235    26.993     7.700
    12   6 C      2.978     0.066    26.512     8.446
    13   6 C      2.922    -0.020    28.497     8.754
    14   6 C      2.914    -0.042    29.049     8.838
    15   6 C      2.888     0.066    26.531     8.445
    16   7 N      1.845    -0.227    26.816     7.675
    17   6 C      2.953     0.162    24.506     8.119
    18   7 N      1.845    -0.259    27.581     7.783
    19   6 C      3.121     0.133    24.933     8.178
    20   1 H      0.924     0.061     2.184     2.311
    21   1 H      0.924     0.062     2.170     2.304
    22   1 H      0.925     0.089     1.888     2.149
    23   1 H      0.926     0.051     2.308     2.376
    24   1 H      0.926     0.063     2.159     2.297
    25   1 H      0.926     0.075     2.029     2.227
    26   1 H      0.926     0.057     2.239     2.340
    27   1 H      0.926     0.042     2.419     2.432
    28   1 H      0.926     0.051     2.305     2.374

 Mol. C6AA /au·bohr⁶  :      13515.737085
 Mol. C8AA /au·bohr⁸  :     356665.016562
 Mol. α(0) /au        :        184.477463


Wiberg/Mayer (AO) data.
largest (>0.10) Wiberg bond orders for each atom
          total WBO             WBO to atom ...
     1  C   3.961        N    2 0.997    H   22 0.976    H   21 0.976    H   20 0.973
     2  N   3.571        C   19 1.188    C    3 1.130    C    1 0.997
     3  C   3.954        C    4 1.358    C    9 1.260    N    2 1.130
     4  C   3.984        C    5 1.462    C    3 1.358    H   23 0.966    C    8 0.103
     5  C   3.969        C    4 1.462    C    6 1.369    H   24 0.968
     6  C   3.908        C    8 1.432    C    5 1.369    Cl   7 0.971
     7  Cl  1.098        C    6 0.971
     8  C   3.977        C    6 1.432    C    9 1.361    H   25 0.964    C    4 0.103
     9  C   3.983        C    8 1.361    C    3 1.260    C   10 1.143
    10  C   3.984        N   11 1.460    C    9 1.143    C   19 1.141
    11  N   3.055        C   10 1.460    C   12 1.307
    12  C   3.973        N   11 1.307    C   13 1.289    C   17 1.168
    13  C   3.976        C   14 1.534    C   12 1.289    H   26 0.965    N   16 0.106
    14  C   3.975        C   13 1.534    C   15 1.323    H   27 0.970
    15  C   3.963        N   16 1.525    C   14 1.323    H   28 0.963
    16  N   3.063        C   15 1.525    C   17 1.297    C   13 0.106
    17  C   3.966        N   18 1.305    N   16 1.297    C   12 1.168
    18  N   3.046        C   19 1.420    C   17 1.305
    19  C   3.965        N   18 1.420    N    2 1.188    C   10 1.141
    20  H   0.994        C    1 0.973
    21  H   0.995        C    1 0.976
    22  H   0.992        C    1 0.976
    23  H   0.997        C    4 0.966
    24  H   0.996        C    5 0.968
    25  H   0.994        C    8 0.964
    26  H   0.997        C   13 0.965
    27  H   0.998        C   14 0.970
    28  H   0.997        C   15 0.963

molecular dipole:
                 x           y           z       tot (Debye)
 q only:        0.265      -1.008       0.186
   full:        0.367      -0.534       0.097       1.665
molecular quadrupole (traceless):
                xx          xy          yy          xz          yz          zz
 q only:        5.298     -19.213      -3.580       3.383       1.387      -1.719
  q+dip:       11.286     -21.907      -5.793       3.547       1.182      -5.494
   full:        8.567     -21.295      -8.342       3.796       2.756      -0.226


           -------------------------------------------------
          | TOTAL ENERGY              -50.851819083397 Eh   |
          | GRADIENT NORM               0.065517431044 Eh/α |
          | HOMO-LUMO GAP               1.052885748827 eV   |
           -------------------------------------------------

------------------------------------------------------------------------
 * finished run on 2026/01/18 at 23:58:44.843     
------------------------------------------------------------------------
 total:
 * wall-time:     0 d,  0 h,  0 min,  0.375 sec
 *  cpu-time:     0 d,  0 h,  0 min,  0.095 sec
 * ratio c/w:     0.254 speedup
 SCF:
 * wall-time:     0 d,  0 h,  0 min,  0.062 sec
 *  cpu-time:     0 d,  0 h,  0 min,  0.062 sec
 * ratio c/w:     1.000 speedup


-------------------------   --------------------
FINAL SINGLE POINT ENERGY         0.000000000000
-------------------------   --------------------

------------------------------------------------------------------------------
                         ORCA GEOMETRY RELAXATION STEP
------------------------------------------------------------------------------

Reading the OPT-File                    .... done
Getting information on internals        .... done
Copying old internal coords+grads       .... done
Making the new internal coordinates     .... (new redundants).... done
Validating the new internal coordinates .... (new redundants).... done
Calculating the B-matrix                .... done
Calculating the G,G- and P matrices     .... done
Transforming gradient to internals      .... done
Projecting the internal gradient        .... done
Number of atoms                         ....  28
Number of internal coordinates          .... 156
Current Energy                          ....     0.000000000 Eh
Current gradient norm                   ....     0.065517431 Eh/bohr
Maximum allowed component of the step   ....  0.300
Current trust radius                    ....  0.300
Updating the Hessian (BFGS)             .... done
Forming the augmented Hessian           .... done
Diagonalizing the augmented Hessian     .... done
Last element of RFO vector              ....  0.992654481
Lowest eigenvalues of augmented Hessian:
 -0.004952246  0.015955529  0.022829400  0.023157947  0.023227555
Length of the computed step             ....  0.121879074
The final length of the internal step   ....  0.121879074
Converting the step to cartesian space:
 Initial RMS(Int)=    0.0097581356
Transforming coordinates:
 Iter   0:  RMS(Cart)=    0.0300883335 RMS(Int)=    1.0053888772
 Iter   1:  RMS(Cart)=    0.0003067845 RMS(Int)=    0.0001483268
 Iter   2:  RMS(Cart)=    0.0000046734 RMS(Int)=    0.0000022053
 Iter   3:  RMS(Cart)=    0.0000001313 RMS(Int)=    0.0000000953
 Iter   4:  RMS(Cart)=    0.0000000039 RMS(Int)=    0.0000000020
done
Storing new coordinates                 .... done

                                .--------------------.
          ----------------------|Geometry convergence|-------------------------
          Item                value                   Tolerance       Converged
          ---------------------------------------------------------------------
          Energy change       0.0000000000            0.0000050000      YES
          RMS gradient        0.0035660470            0.0001000000      NO
          MAX gradient        0.0193575791            0.0003000000      NO
          RMS step            0.0097581356            0.0020000000      NO
          MAX step            0.0417592556            0.0040000000      NO
          ........................................................
          Max(Bonds)      0.0221      Max(Angles)    1.37
          Max(Dihed)        1.26      Max(Improp)    0.00
          ---------------------------------------------------------------------

The optimization has not yet converged - more geometry cycles are needed


    ---------------------------------------------------------------------------
                         Redundant Internal Coordinates
                            (Angstroem and degrees)

        Definition                    Value    dE/dq     Step     New-Value
    ----------------------------------------------------------------------------
     1. B(N   1,C   0)                1.4380  0.002702 -0.0046    1.4335   
     2. B(C   2,N   1)                1.3782 -0.004585  0.0046    1.3828   
     3. B(C   3,C   2)                1.3913  0.002974 -0.0035    1.3878   
     4. B(C   4,C   3)                1.3885  0.005460 -0.0071    1.3814   
     5. B(C   5,C   4)                1.3990  0.004373 -0.0060    1.3930   
     6. B(Cl  6,C   5)                1.7375  0.003854 -0.0074    1.7301   
     7. B(C   7,C   5)                1.3883  0.005229 -0.0067    1.3816   
     8. B(C   8,C   7)                1.3898  0.002043 -0.0022    1.3877   
     9. B(C   8,C   2)                1.4062 -0.007668  0.0091    1.4153   
    10. B(C   9,C   8)                1.4145 -0.016300  0.0190    1.4335   
    11. B(N  10,C   9)                1.3242  0.013642 -0.0157    1.3085   
    12. B(C  11,N  10)                1.3500  0.001169 -0.0017    1.3483   
    13. B(C  12,C  11)                1.3960 -0.006740  0.0083    1.4043   
    14. B(C  13,C  12)                1.3769  0.005406 -0.0066    1.3703   
    15. B(C  14,C  13)                1.4012 -0.003862  0.0043    1.4055   
    16. B(N  15,C  14)                1.3185  0.014177 -0.0173    1.3012   
    17. B(C  16,N  15)                1.3385 -0.000316 -0.0000    1.3384   
    18. B(C  16,C  11)                1.4399 -0.002429  0.0035    1.4433   
    19. B(N  17,C  16)                1.3420 -0.000008 -0.0004    1.3416   
    20. B(C  18,N  17)                1.3245  0.012798 -0.0149    1.3096   
    21. B(C  18,C   9)                1.4117 -0.019358  0.0221    1.4338   
    22. B(C  18,N   1)                1.3584 -0.001167  0.0010    1.3594   
    23. B(H  19,C   0)                1.0944  0.000963 -0.0020    1.0924   
    24. B(H  20,C   0)                1.0931  0.001268 -0.0026    1.0905   
    25. B(H  21,C   0)                1.0896  0.001281 -0.0026    1.0869   
    26. B(H  22,C   3)                1.0778 -0.000064  0.0001    1.0779   
    27. B(H  23,C   4)                1.0779 -0.000327  0.0006    1.0786   
    28. B(H  24,C   7)                1.0772  0.000157 -0.0003    1.0769   
    29. B(H  25,C  12)                1.0799  0.000244 -0.0005    1.0794   
    30. B(H  26,C  13)                1.0799  0.000042 -0.0001    1.0798   
    31. B(H  27,C  14)                1.0769 -0.002207  0.0042    1.0811   
    32. A(H  19,C   0,H  21)          109.28 -0.000515    0.01    109.29   
    33. A(H  19,C   0,H  20)          109.49  0.000902   -0.11    109.38   
    34. A(N   1,C   0,H  20)          109.84 -0.000679    0.21    110.05   
    35. A(N   1,C   0,H  19)          109.97 -0.002347    0.56    110.52   
    36. A(N   1,C   0,H  21)          109.25  0.004429   -1.11    108.14   
    37. A(H  20,C   0,H  21)          108.99 -0.001780    0.44    109.44   
    38. A(C   0,N   1,C  18)          126.34  0.005157   -0.86    125.48   
    39. A(C   2,N   1,C  18)          106.62 -0.007913    1.28    107.90   
    40. A(C   0,N   1,C   2)          126.94  0.002746   -0.39    126.55   
    41. A(N   1,C   2,C   8)          110.78  0.001540   -0.44    110.34   
    42. A(C   3,C   2,C   8)          120.55  0.000398    0.05    120.60   
    43. A(N   1,C   2,C   3)          128.67 -0.001939    0.39    129.06   
    44. A(C   2,C   3,C   4)          117.99 -0.000205    0.02    118.00   
    45. A(C   2,C   3,H  22)          121.56 -0.000089    0.03    121.60   
    46. A(C   4,C   3,H  22)          120.45  0.000294   -0.05    120.40   
    47. A(C   3,C   4,H  23)          119.34 -0.000690    0.20    119.54   
    48. A(C   3,C   4,C   5)          121.10 -0.000411   -0.01    121.10   
    49. A(C   5,C   4,H  23)          119.55  0.001101   -0.19    119.36   
    50. A(C   4,C   5,C   7)          121.43 -0.002899    0.47    121.90   
    51. A(Cl  6,C   5,C   7)          119.41  0.000674   -0.09    119.32   
    52. A(C   4,C   5,Cl  6)          119.16  0.002225   -0.38    118.78   
    53. A(C   5,C   7,H  24)          121.52 -0.000787    0.16    121.68   
[...]
   143. D(N  15,C  16,C  11,C  12)      0.00  0.000000    0.00      0.00   
   144. D(N  15,C  16,C  11,N  10)   -180.00 -0.000001    0.00   -180.00   
   145. D(C  18,N  17,C  16,C  11)     -0.01 -0.000003    0.01     -0.01   
   146. D(C  18,N  17,C  16,N  15)    179.99 -0.000002    0.00    179.99   
   147. D(C   9,C  18,N  17,C  16)      0.01  0.000003   -0.01      0.00   
   148. D(N   1,C  18,N  17,C  16)    179.97 -0.000003    0.01    179.98   
   149. D(N  17,C  18,C   9,N  10)      0.00 -0.000001    0.00      0.00   
   150. D(N  17,C  18,C   9,C   8)    179.99 -0.000005    0.01    180.00   
   151. D(N   1,C  18,C   9,N  10)   -179.96  0.000005   -0.02   -179.98   
   152. D(N   1,C  18,C   9,C   8)      0.03  0.000001   -0.01      0.02   
   153. D(N  17,C  18,N   1,C   2)    180.00  0.000005   -0.00    179.99   
   154. D(N  17,C  18,N   1,C   0)      0.20  0.000020   -0.07      0.13   
   155. D(C   9,C  18,N   1,C   2)     -0.04 -0.000001    0.01     -0.03   
   156. D(C   9,C  18,N   1,C   0)   -179.84  0.000014   -0.05   -179.89   
    ----------------------------------------------------------------------------
                 *******************************************************
                 *** FINAL ENERGY EVALUATION AT THE STATIONARY POINT ***
                 ***               (AFTER   11 CYCLES)               ***
                 *******************************************************
      -----------------------------------------------------------      
     |                   =====================                   |     
     |                           x T B                           |     
     |                   =====================                   |     
     |                         S. Grimme                         |     
     |          Mulliken Center for Theoretical Chemistry        |     
     |                    University of Bonn                     |     
      -----------------------------------------------------------      

   * xtb version 6.2.3 (830e466) compiled by 'ehlert@majestix' on 2020-03-16

   xtb is free software: you can redistribute it and/or modify it under
   the terms of the GNU Lesser General Public License as published by
   the Free Software Foundation, either version 3 of the License, or
   (at your option) any later version.
   
   xtb is distributed in the hope that it will be useful,
   but WITHOUT ANY WARRANTY; without even the implied warranty of
   MERCHANTABILITY or FITNESS FOR A PARTICULAR PURPOSE.  See the
   GNU Lesser General Public License for more details.
   
   Cite this work as:
   * S. Grimme, C. Bannwarth, P. Shushkov, J. Chem. Theory Comput., 2017,
     13, 1989-2009. DOI: 10.1021/acs.jctc.7b00118
   * C. Bannwarth, S. Ehlert and S. Grimme., J. Chem. Theory Comput., 2019,
     15, 1652-1671. DOI: 10.1021/acs.jctc.8b01176
   * P. Pracht, E. Caldeweyher, S. Ehlert, S. Grimme, ChemRxiv, 2019, preprint.
     DOI: 10.26434/chemrxiv.8326202.v1
   
   for DFT-D4:
   * E. Caldeweyher, C. Bannwarth and S. Grimme, J. Chem. Phys., 2017,
     147, 034112. DOI: 10.1063/1.4993215
   * E. Caldeweyher, S. Ehlert, A. Hansen, H. Neugebauer, S. Spicher,
     C. Bannwarth and S. Grimme, J. Chem. Phys., 2019, 150, 154122.
     DOI: 10.1063/1.5090222
   
   for sTDA-xTB:
   * S. Grimme and C. Bannwarth, J. Chem. Phys., 2016, 145, 054103.
     DOI: 10.1063/1.4959605
   
   in the mass-spec context:
   * V. Asgeirsson, C. Bauer and S. Grimme, Chem. Sci., 2017, 8, 4879.
     DOI: 10.1039/c7sc00601b
   
   for metadynamics refer to:
   * S. Grimme, J. Chem. Theory Comput., 2019, 155, 2847-2862
     DOI: 10.1021/acs.jctc.9b00143
   
   with help from (in alphabetical order)
   C. Bannwarth, F. Bohle, G. Brandenburg, E. Caldeweyher, M. Checinski,
   S. Dohm, S. Ehlert, S. Ehrlich, F. März, H. Neugebauer, J. Pisarek,
   P. Pracht, P. Shushkov, and S. Spicher.
   
 * started run on 2026/01/18 at 23:58:58.138     

           -------------------------------------------------
          |                Calculation Setup                |
           -------------------------------------------------

          program call               : /appl/orca_4.2.1/orca_4_2_1_linux_x86-64_openmpi314/xtb pre_opt_XTB.xyz --grad -c 0 -u 0 -P 1 --namespace pre_opt
          hostname                   : cnode13
          calculation namespace      : pre_opt
          coordinate file            : pre_opt_XTB.xyz
          omp threads                :                     1
          number of atoms            :                    28
          number of electrons        :                    92
          charge                     :                     0
          spin                       :                   0.0
          first test random number   :      0.64521473266336

########################################################################
[WARNING] Please study the warnings concerning your input carefully
-2- prog_main: XTBPATH is not set, using XTBHOME instead
-1- prog_main: XTBHOME is not set, using HOME instead
########################################################################
           ------------------------------------------------- 
          |                 G F N 2 - x T B                 |
          | Geometry, Frequencies, Noncovalent interactions |
          |            JCTC 2019 parametrisation            |
           ------------------------------------------------- 
             k(s)              :                1.8500
             k(p)              :                2.2300
             k(d)              :                2.2300
             k(f)              :                2.0000
             kEN (H0ij)        :               -2.0000
             D4 a1             :                0.5200
             D4 a2             :                5.0000
             D4 s6             :                1.0000
             D4 s8             :                2.7000
             D4 s9             :                5.0000
             alphaj            :                2.0000

  Z AO/shell   Hii/eV     exponent
  1     Wed Apr 25 08:07:45 CEST 2018   EN: 2.200 GM2: 0.406  GM3: 0.0800  RAES: 1.40
     1s    -10.707211    1.230000
  6     Wed Apr 25 08:07:45 CEST 2018   EN: 2.550 GM2: 0.538  GM3: 0.1500  RAES: 3.00
     2s    -13.970922    2.096432
     2p    -10.063292    1.800000
  7     Wed Apr 25 08:07:45 CEST 2018   EN: 3.040 GM2: 0.461  GM3:-0.0640  RAES: 1.90
     2s    -16.686243    2.339881
     2p    -12.523956    2.014332
 17     Mon Apr 23 14:09:22 CEST 2018   EN: 3.160 GM2: 0.249  GM3: 0.1495  RAES: 2.50
     3s    -29.278781    2.485265
     3p    -12.673758    2.199650
     3d     -0.240338    2.476089

           ------------------------------------------------- 
          |        Self-Consistent Charge Iterations        |
           ------------------------------------------------- 

          ...................................................
          :                      SETUP                      :
          :.................................................:
          :  # basis functions                  91          :
          :  # atomic orbitals                  90          :
          :  # shells                           48          :
          :  # electrons                        92          :
          :  max. iterations                   250          :
          :  Hamiltonian                  GFN2-xTB          :
          :  restarted?                      false          :
          :  GBSA solvation                  false          :
          :  PC potential                    false          :
          :  electronic temp.          300.0000000     K    :
          :  accuracy                    1.0000000          :
          :  -> integral cutoff          0.2500000E+02      :
          :  -> integral neglect         0.1000000E-07      :
          :  -> SCF convergence          0.1000000E-05 Eh   :
          :  -> wf. convergence          0.1000000E-03 e    :
          :  Broyden damping             0.4000000          :
          ...................................................

 iter      E             dE          RMSdq      gap      omega  full diag
   1    -51.5194752 -0.515195E+02  0.461E+00    1.67       0.0  T
   2    -51.5957971 -0.763218E-01  0.297E+00    1.43       1.0  T
   3    -51.5979356 -0.213857E-02  0.152E+00    1.33       1.0  T
   4    -51.6108406 -0.129050E-01  0.418E-01    1.20       1.0  T
   5    -51.6167219 -0.588131E-02  0.132E-01    1.19       1.0  T
   6    -51.6170412 -0.319261E-03  0.499E-02    1.20       1.0  T
   7    -51.6170677 -0.264760E-04  0.223E-02    1.19       1.0  T
   8    -51.6170695 -0.187603E-05  0.121E-02    1.20       1.6  T
   9    -51.6170709 -0.134637E-05  0.709E-03    1.20       2.7  T
  10    -51.6170712 -0.312379E-06  0.544E-03    1.20       3.5  T
  11    -51.6170715 -0.353757E-06  0.298E-03    1.20       6.3  T
  12    -51.6170716 -0.104169E-06  0.145E-03    1.20      13.1  T
  13    -51.6170717 -0.285234E-07  0.602E-04    1.20      31.4  T
  14    -51.6170717 -0.545913E-08  0.261E-04    1.20      72.4  T

   *** convergence criteria satisfied after 14 iterations ***

         #    Occupation            Energy/Eh            Energy/eV
      -------------------------------------------------------------
         1        2.0000           -1.0576565             -28.7803
       ...           ...                  ...                  ...
        40        2.0000           -0.4270885             -11.6217
        41        2.0000           -0.4214270             -11.4676
        42        2.0000           -0.4212715             -11.4634
        43        2.0000           -0.4070571             -11.0766
        44        2.0000           -0.3908781             -10.6363
        45        2.0000           -0.3863679             -10.5136
        46        2.0000           -0.3518397              -9.5740 (HOMO)
        47                         -0.3077710              -8.3749 (LUMO)
        48                         -0.2608873              -7.0991
        49                         -0.2384175              -6.4877
        50                         -0.2313292              -6.2948
        51                         -0.2171347              -5.9085
       ...                                ...                  ...
        90                          0.7108249              19.3425
      -------------------------------------------------------------
                  HL-Gap            0.0440687 Eh            1.1992 eV
             Fermi-level           -0.3298053 Eh           -8.9745 eV

 SCC (total)                   0 d,  0 h,  0 min,  0.064 sec
 SCC setup                      ...        0 min,  0.000 sec (  0.737%)
 Dispersion                     ...        0 min,  0.000 sec (  0.770%)
 integral evaluation            ...        0 min,  0.023 sec ( 36.291%)
 zeroth order Hamiltonian       ...        0 min,  0.000 sec (  0.448%)
 iterations                     ...        0 min,  0.022 sec ( 33.796%)
 molecular gradient             ...        0 min,  0.018 sec ( 27.686%)
 printout                       ...        0 min,  0.000 sec (  0.190%)

         :::::::::::::::::::::::::::::::::::::::::::::::::::::
         ::                     SUMMARY                     ::
         :::::::::::::::::::::::::::::::::::::::::::::::::::::
         :: total energy             -50.855126970865 Eh    ::
         :: gradient norm              0.000440411234 Eh/a0 ::
         :: HOMO-LUMO gap              1.199170086194 eV    ::
         ::.................................................::
         :: SCC energy               -51.617071678969 Eh    ::
         :: -> isotropic ES            0.031470227756 Eh    ::
         :: -> anisotropic ES          0.001875291161 Eh    ::
         :: -> anisotropic XC          0.036185461325 Eh    ::
         :: -> dispersion             -0.034283083799 Eh    ::
         :: repulsion energy           0.762158921713 Eh    ::
         :: add. restraining           0.000000000000 Eh    ::
         :::::::::::::::::::::::::::::::::::::::::::::::::::::

           -------------------------------------------------
          |                Property Printout                |
           -------------------------------------------------

    * Orbital Energies and Occupations

         #    Occupation            Energy/Eh            Energy/eV
      -------------------------------------------------------------
         1        2.0000           -1.0576565             -28.7803
       ...           ...                  ...                  ...
        34        2.0000           -0.4706970             -12.8083
        35        2.0000           -0.4672836             -12.7154
        36        2.0000           -0.4570514             -12.4370
        37        2.0000           -0.4484774             -12.2037
        38        2.0000           -0.4440611             -12.0835
        39        2.0000           -0.4398189             -11.9681
        40        2.0000           -0.4270885             -11.6217
        41        2.0000           -0.4214270             -11.4676
        42        2.0000           -0.4212715             -11.4634
        43        2.0000           -0.4070571             -11.0766
        44        2.0000           -0.3908781             -10.6363
        45        2.0000           -0.3863679             -10.5136
        46        2.0000           -0.3518397              -9.5740 (HOMO)
        47                         -0.3077710              -8.3749 (LUMO)
        48                         -0.2608873              -7.0991
        49                         -0.2384175              -6.4877
        50                         -0.2313292              -6.2948
        51                         -0.2171347              -5.9085
        52                         -0.1595304              -4.3410
        53                         -0.1414334              -3.8486
        54                         -0.1081719              -2.9435
        55                         -0.0805283              -2.1913
        56                         -0.0101404              -0.2759
        57                          0.0127956               0.3482
       ...                                ...                  ...
        90                          0.7108249              19.3425
      -------------------------------------------------------------
                  HL-Gap            0.0440687 Eh            1.1992 eV
             Fermi-level           -0.3298053 Eh           -8.9745 eV

     #   Z        covCN         q      C6AA      α(0)
     1   6 C      3.690    -0.055    21.755     6.675
     2   7 N      2.787    -0.039    21.987     6.964
     3   6 C      3.091     0.046    26.858     8.494
     4   6 C      2.911    -0.047    29.163     8.855
     5   6 C      2.960    -0.037    28.921     8.821
     6   6 C      2.890     0.091    25.966     8.354
     7  17 Cl     0.969    -0.176   104.696    15.654
     8   6 C      2.948    -0.033    28.817     8.805
     9   6 C      3.058    -0.020    28.451     8.747
    10   6 C      3.067     0.072    26.332     8.414
    11   7 N      1.838    -0.229    26.847     7.678
    12   6 C      2.993     0.063    26.580     8.457
    13   6 C      2.924    -0.020    28.505     8.755
    14   6 C      2.911    -0.043    29.061     8.840
    15   6 C      2.907     0.067    26.495     8.440
    16   7 N      1.844    -0.225    26.771     7.668
    17   6 C      2.989     0.159    24.566     8.130
    18   7 N      1.844    -0.258    27.550     7.779
    19   6 C      3.088     0.132    25.015     8.198
    20   1 H      0.924     0.061     2.187     2.313
    21   1 H      0.924     0.061     2.188     2.313
    22   1 H      0.925     0.092     1.863     2.134
    23   1 H      0.926     0.051     2.305     2.374
    24   1 H      0.926     0.063     2.160     2.298
    25   1 H      0.926     0.074     2.042     2.234
    26   1 H      0.926     0.057     2.239     2.340
    27   1 H      0.926     0.044     2.401     2.423
    28   1 H      0.925     0.048     2.339     2.392

 Mol. C6AA /au·bohr⁶  :      13521.828154
 Mol. C8AA /au·bohr⁸  :     356833.147071
 Mol. α(0) /au        :        184.552875


Wiberg/Mayer (AO) data.
largest (>0.10) Wiberg bond orders for each atom
          total WBO             WBO to atom ...
     1  C   3.961        N    2 0.996    H   22 0.975    H   21 0.975    H   20 0.975
     2  N   3.572        C   19 1.191    C    3 1.129    C    1 0.996
     3  C   3.955        C    4 1.364    C    9 1.256    N    2 1.129
     4  C   3.984        C    5 1.458    C    3 1.364    H   23 0.966    C    8 0.101
     5  C   3.971        C    4 1.458    C    6 1.372    H   24 0.967
     6  C   3.907        C    8 1.427    C    5 1.372    Cl   7 0.972
     7  Cl  1.099        C    6 0.972
     8  C   3.978        C    6 1.427    C    9 1.373    H   25 0.964    C    4 0.101
     9  C   3.982        C    8 1.373    C    3 1.256    C   10 1.130
    10  C   3.982        N   11 1.502    C    9 1.130    C   19 1.105
    11  N   3.063        C   10 1.502    C   12 1.288
    12  C   3.972        N   11 1.288    C   13 1.277    C   17 1.193
    13  C   3.977        C   14 1.552    C   12 1.277    H   26 0.965    N   16 0.103
    14  C   3.975        C   13 1.552    C   15 1.305    H   27 0.969
    15  C   3.964        N   16 1.545    C   14 1.305    H   28 0.962
    16  N   3.066        C   15 1.545    C   17 1.286    C   13 0.103
    17  C   3.966        N   16 1.286    N   18 1.282    C   12 1.193
    18  N   3.050        C   19 1.452    C   17 1.282
    19  C   3.963        N   18 1.452    N    2 1.191    C   10 1.105
    20  H   0.994        C    1 0.975
    21  H   0.994        C    1 0.975
    22  H   0.991        C    1 0.975
    23  H   0.997        C    4 0.966
    24  H   0.996        C    5 0.967
    25  H   0.994        C    8 0.964
    26  H   0.997        C   13 0.965
    27  H   0.998        C   14 0.969
    28  H   0.997        C   15 0.962

molecular dipole:
                 x           y           z       tot (Debye)
 q only:        0.255      -0.972       0.184
   full:        0.375      -0.510       0.086       1.623
molecular quadrupole (traceless):
                xx          xy          yy          xz          yz          zz
 q only:        5.053     -18.888      -3.476       3.522       1.369      -1.578
  q+dip:       10.911     -21.658      -5.831       3.672       1.203      -5.080
   full:        8.198     -21.072      -8.371       3.904       2.820       0.174


           -------------------------------------------------
          | TOTAL ENERGY              -50.855126970865 Eh   |
          | GRADIENT NORM               0.000440411234 Eh/α |
          | HOMO-LUMO GAP               1.199170086194 eV   |
           -------------------------------------------------

------------------------------------------------------------------------
 * finished run on 2026/01/18 at 23:58:58.452     
------------------------------------------------------------------------
 total:
 * wall-time:     0 d,  0 h,  0 min,  0.313 sec
 *  cpu-time:     0 d,  0 h,  0 min,  0.097 sec
 * ratio c/w:     0.308 speedup
 SCF:
 * wall-time:     0 d,  0 h,  0 min,  0.064 sec
 *  cpu-time:     0 d,  0 h,  0 min,  0.064 sec
 * ratio c/w:     1.000 speedup


-------------------------   --------------------
FINAL SINGLE POINT ENERGY         0.000000000000
-------------------------   --------------------

                                *** OPTIMIZATION RUN DONE ***

Timings for individual modules:

Sum of individual times         ...       12.668 sec (=   0.211 min)
Geometry relaxation             ...        3.928 sec (=   0.065 min)  31.0 %
XTB module                      ...        8.741 sec (=   0.146 min)  69.0 %
                             ****ORCA TERMINATED NORMALLY****
TOTAL RUN TIME: 0 days 0 hours 0 minutes 17 seconds 30 msec
