 Entering Gaussian System, Link 0=g16
 Initial command:
 /appl/Gaussian16/AVX_revB01/g16/l1.exe "/home/junhkim/WORK/Review_DD/TADF-Design/data/td_dft/results/mol_491/Gau-1879400.inp" -scrdir="/home/junhkim/WORK/Review_DD/TADF-Design/data/td_dft/results/mol_491/"
 Entering Link 1 = /appl/Gaussian16/AVX_revB01/g16/l1.exe PID=   1879402.
  
 Copyright (c) 1988-2017, Gaussian, Inc.  All Rights Reserved.
  
 This is part of the Gaussian(R) 16 program.  It is based on
 the Gaussian(R) 09 system (copyright 2009, Gaussian, Inc.),
 the Gaussian(R) 03 system (copyright 2003, Gaussian, Inc.),
 the Gaussian(R) 98 system (copyright 1998, Gaussian, Inc.),
 the Gaussian(R) 94 system (copyright 1995, Gaussian, Inc.),
 the Gaussian 92(TM) system (copyright 1992, Gaussian, Inc.),
 the Gaussian 90(TM) system (copyright 1990, Gaussian, Inc.),
 the Gaussian 88(TM) system (copyright 1988, Gaussian, Inc.),
 the Gaussian 86(TM) system (copyright 1986, Carnegie Mellon
 University), and the Gaussian 82(TM) system (copyright 1983,
 Carnegie Mellon University). Gaussian is a federally registered
 trademark of Gaussian, Inc.
  
 This software contains proprietary and confidential information,
 including trade secrets, belonging to Gaussian, Inc.
  
 This software is provided under written license and may be
 used, copied, transmitted, or stored only in accord with that
 written license.
  
 The following legend is applicable only to US Government
 contracts under FAR:
  
                    RESTRICTED RIGHTS LEGEND
  
 Use, reproduction and disclosure by the US Government is
 subject to restrictions as set forth in subparagraphs (a)
 and (c) of the Commercial Computer Software - Restricted
 Rights clause in FAR 52.227-19.
  
 Gaussian, Inc.
 340 Quinnipiac St., Bldg. 40, Wallingford CT 06492
  
  
 ---------------------------------------------------------------
 Warning -- This program may not be used in any manner that
 competes with the business of Gaussian, Inc. or will provide
 assistance to any competitor of Gaussian, Inc.  The licensee
 of this program is prohibited from giving any competitor of
 Gaussian, Inc. access to this program.  By using this program,
 the user acknowledges that Gaussian, Inc. is engaged in the
 business of creating and licensing software in the field of
 computational chemistry and represents and warrants to the
 licensee that it is not a competitor of Gaussian, Inc. and that
 it will not use this program in any manner prohibited above.
 ---------------------------------------------------------------
  

 Cite this work as:
 Gaussian 16, Revision B.01,
 M. J. Frisch, G. W. Trucks, H. B. Schlegel, G. E. Scuseria, 
 M. A. Robb, J. R. Cheeseman, G. Scalmani, V. Barone, 
 G. A. Petersson, H. Nakatsuji, X. Li, M. Caricato, A. V. Marenich, 
 J. Bloino, B. G. Janesko, R. Gomperts, B. Mennucci, H. P. Hratchian, 
 J. V. Ortiz, A. F. Izmaylov, J. L. Sonnenberg, D. Williams-Young, 
 F. Ding, F. Lipparini, F. Egidi, J. Goings, B. Peng, A. Petrone, 
 T. Henderson, D. Ranasinghe, V. G. Zakrzewski, J. Gao, N. Rega, 
 G. Zheng, W. Liang, M. Hada, M. Ehara, K. Toyota, R. Fukuda, 
 J. Hasegawa, M. Ishida, T. Nakajima, Y. Honda, O. Kitao, H. Nakai, 
 T. Vreven, K. Throssell, J. A. Montgomery, Jr., J. E. Peralta, 
 F. Ogliaro, M. J. Bearpark, J. J. Heyd, E. N. Brothers, K. N. Kudin, 
 V. N. Staroverov, T. A. Keith, R. Kobayashi, J. Normand, 
 K. Raghavachari, A. P. Rendell, J. C. Burant, S. S. Iyengar, 
 J. Tomasi, M. Cossi, J. M. Millam, M. Klene, C. Adamo, R. Cammi, 
 J. W. Ochterski, R. L. Martin, K. Morokuma, O. Farkas, 
 J. B. Foresman, and D. J. Fox, Gaussian, Inc., Wallingford CT, 2016.
 
 ******************************************
 Gaussian 16:  ES64L-G16RevB.01 20-Dec-2017
                19-Jan-2026 
 ******************************************
 %OldChk=/home/junhkim/WORK/Review_DD/TADF-Design/data/td_dft/results/mol_491/opt
 .chk
 %nprocshared=16
 Will use up to   16 processors via shared memory.
 %mem=60GB
 Copying data from "/home/junhkim/WORK/Review_DD/TADF-Design/data/td_dft/results/mol_491/opt.chk" to current chk file "/home/junhkim/WORK/Review_DD/TADF-Design/data/td_dft/results/mol_491/Gau-1879402.chk"
 IOpt=  2 FromEx=T IUOpen= 4 IOptOp= 5 NList=   0 IFRang= 0 IUIn= 4 IUOut= 2.
 -----------------------------------------------------------------
 # b3lyp/6-31g* TD=(Nstates=1,50-50) Geom=Check Guess=Read SCF=XQC
 -----------------------------------------------------------------
 1/29=2,38=1,172=1/1;
 2/12=2,40=1/2;
 3/5=1,6=6,7=1,11=9,14=-4,25=1,30=1,74=-5,116=-2/1,2,3,8;
 4/5=1/1;
 5/5=2,8=3,13=1,38=6/2,8;
 8/6=1,10=2,108=1/1;
 9/41=1,42=1,48=2,70=2/14;
 6/7=2,8=2,9=2,10=2/1;
 99/5=1,9=1/99;
 ------------------
 TD-DFT calculation
 ------------------
 Structure from the checkpoint file:  "/home/junhkim/WORK/Review_DD/TADF-Design/data/td_dft/results/mol_491/Gau-1879402.chk"
 Charge =  0 Multiplicity = 1
 Redundant internal coordinates found in file.  (old form).
 C,0,1.4899995681,-2.7123284622,0.4493821275
 N,0,1.146366923,-1.32817233,0.1859510884
 C,0,2.0402866302,-0.2859539403,-0.0620936859
 C,0,3.4337207896,-0.3205707328,-0.1141316012
 C,0,4.1081435189,0.8702362476,-0.3827615603
 C,0,3.4011823788,2.0639862422,-0.5934360629
 Cl,0,4.3036746108,3.5371603209,-0.9286223218
 C,0,2.0117363079,2.1112884738,-0.5440992211
 C,0,1.3300368369,0.9239104202,-0.2758887234
 C,0,-0.0735459295,0.5925894987,-0.1496846617
 N,0,-1.1554519451,1.3297610589,-0.2525150519
 C,0,-2.3274774406,0.652651342,-0.0665059087
 C,0,-3.5539949681,1.3531463491,-0.1558155201
 C,0,-4.7305318605,0.6668690481,0.0321865563
 C,0,-4.6662355667,-0.7215009898,0.3092094761
 N,0,-3.5499492829,-1.4191028764,0.402599444
 C,0,-2.3765459692,-0.7606471848,0.2203492566
 N,0,-1.2387907443,-1.5071666118,0.3227352572
 C,0,-0.1368165377,-0.8254224979,0.1388075071
 H,0,2.106831758,-2.7947981299,1.3515447244
 H,0,2.0340629477,-3.1456556274,-0.3976094302
 H,0,0.5586386079,-3.2607588861,0.5981869397
 H,0,3.9879040264,-1.2394456449,0.0476532201
 H,0,5.1917931568,0.8796371157,-0.4305643872
 H,0,1.472695263,3.037819869,-0.7080286452
 H,0,-3.5232923107,2.4171498865,-0.3715049132
 H,0,-5.693853243,1.1639725558,-0.0272632299
 H,0,-5.5905875256,-1.2786555144,0.4605223273
 Recover connectivity data from disk.
                           ----------------------------
                           !    Current Parameters    !
                           ! (Angstroms and Degrees)  !
 --------------------------                            --------------------------
 ! Name  Definition              Value                                          !
 --------------------------------------------------------------------------------
 ! R1    R(1,2)                  1.4503                                         !
 ! R2    R(1,20)                 1.096                                          !
 ! R3    R(1,21)                 1.096                                          !
 ! R4    R(1,22)                 1.091                                          !
 ! R5    R(2,3)                  1.3953                                         !
 ! R6    R(2,19)                 1.379                                          !
 ! R7    R(3,4)                  1.3948                                         !
 ! R8    R(3,9)                  1.4191                                         !
 ! R9    R(4,5)                  1.3946                                         !
 ! R10   R(4,23)                 1.0852                                         !
 ! R11   R(5,6)                  1.4033                                         !
 ! R12   R(5,24)                 1.0847                                         !
 ! R13   R(6,7)                  1.7599                                         !
 ! R14   R(6,8)                  1.3911                                         !
 ! R15   R(8,9)                  1.3952                                         !
 ! R16   R(8,25)                 1.0844                                         !
 ! R17   R(9,10)                 1.4477                                         !
 ! R18   R(10,11)                1.3132                                         !
 ! R19   R(10,19)                1.4484                                         !
 ! R20   R(11,12)                1.3663                                         !
 ! R21   R(12,13)                1.4153                                         !
 ! R22   R(12,17)                1.443                                          !
 ! R23   R(13,14)                1.375                                          !
 ! R24   R(13,26)                1.0861                                         !
 ! R25   R(14,15)                1.4172                                         !
 ! R26   R(14,27)                1.0856                                         !
 ! R27   R(15,16)                1.3196                                         !
 ! R28   R(15,28)                1.0898                                         !
 ! R29   R(16,17)                1.3578                                         !
 ! R30   R(17,18)                1.3646                                         !
 ! R31   R(18,19)                1.3088                                         !
 ! A1    A(2,1,20)             110.7741                                         !
 ! A2    A(2,1,21)             110.7686                                         !
 ! A3    A(2,1,22)             107.5932                                         !
 ! A4    A(20,1,21)            109.0872                                         !
 ! A5    A(20,1,22)            109.2901                                         !
 ! A6    A(21,1,22)            109.2946                                         !
 ! A7    A(1,2,3)              126.3972                                         !
 ! A8    A(1,2,19)             125.0751                                         !
 ! A9    A(3,2,19)             108.5277                                         !
 ! A10   A(2,3,4)              128.9115                                         !
 ! A11   A(2,3,9)              110.0564                                         !
 ! A12   A(4,3,9)              121.032                                          !
 ! A13   A(3,4,5)              117.9753                                         !
 ! A14   A(3,4,23)             121.71                                           !
 ! A15   A(5,4,23)             120.3147                                         !
 ! A16   A(4,5,6)              120.7733                                         !
 ! A17   A(4,5,24)             119.9326                                         !
 ! A18   A(6,5,24)             119.2941                                         !
 ! A19   A(5,6,7)              118.8387                                         !
 ! A20   A(5,6,8)              121.7883                                         !
 ! A21   A(7,6,8)              119.3731                                         !
 ! A22   A(6,8,9)              117.7685                                         !
 ! A23   A(6,8,25)             121.3446                                         !
 ! A24   A(9,8,25)             120.8869                                         !
 ! A25   A(3,9,8)              120.6626                                         !
 ! A26   A(3,9,10)             106.0807                                         !
 ! A27   A(8,9,10)             133.2567                                         !
 ! A28   A(9,10,11)            131.5654                                         !
 ! A29   A(9,10,19)            106.4854                                         !
 ! A30   A(11,10,19)           121.9491                                         !
 ! A31   A(10,11,12)           114.7002                                         !
 ! A32   A(11,12,13)           119.3096                                         !
 ! A33   A(11,12,17)           122.7952                                         !
 ! A34   A(13,12,17)           117.8952                                         !
 ! A35   A(12,13,14)           119.0704                                         !
 ! A36   A(12,13,26)           118.2243                                         !
 ! A37   A(14,13,26)           122.7053                                         !
 ! A38   A(13,14,15)           118.4814                                         !
 ! A39   A(13,14,27)           121.5495                                         !
 ! A40   A(15,14,27)           119.9691                                         !
 ! A41   A(14,15,16)           124.7562                                         !
 ! A42   A(14,15,28)           119.307                                          !
 ! A43   A(16,15,28)           115.9368                                         !
 ! A44   A(15,16,17)           117.7208                                         !
 ! A45   A(12,17,16)           122.076                                          !
 ! A46   A(12,17,18)           121.491                                          !
 ! A47   A(16,17,18)           116.433                                          !
 ! A48   A(17,18,19)           113.9845                                         !
 ! A49   A(2,19,10)            108.8497                                         !
 ! A50   A(2,19,18)            126.0703                                         !
 ! A51   A(10,19,18)           125.0799                                         !
 ! D1    D(20,1,2,3)            60.6832                                         !
 ! D2    D(20,1,2,19)         -119.3863                                         !
 ! D3    D(21,1,2,3)           -60.5091                                         !
 ! D4    D(21,1,2,19)          119.4214                                         !
 ! D5    D(22,1,2,3)          -179.9141                                         !
 ! D6    D(22,1,2,19)            0.0164                                         !
 ! D7    D(1,2,3,4)             -0.0555                                         !
 ! D8    D(1,2,3,9)            179.9493                                         !
 ! D9    D(19,2,3,4)          -179.9955                                         !
 ! D10   D(19,2,3,9)             0.0093                                         !
 ! D11   D(1,2,19,10)         -179.9502                                         !
 ! D12   D(1,2,19,18)            0.0483                                         !
 ! D13   D(3,2,19,10)           -0.0093                                         !
 ! D14   D(3,2,19,18)          179.9893                                         !
 ! D15   D(2,3,4,5)           -179.9962                                         !
 ! D16   D(2,3,4,23)             0.0031                                         !
 ! D17   D(9,3,4,5)             -0.0014                                         !
 ! D18   D(9,3,4,23)           179.9978                                         !
 ! D19   D(2,3,9,8)            179.9954                                         !
 ! D20   D(2,3,9,10)            -0.0054                                         !
 ! D21   D(4,3,9,8)             -0.0002                                         !
 ! D22   D(4,3,9,10)           179.9989                                         !
 ! D23   D(3,4,5,6)              0.002                                          !
 ! D24   D(3,4,5,24)          -179.9993                                         !
 ! D25   D(23,4,5,6)          -179.9973                                         !
 ! D26   D(23,4,5,24)            0.0014                                         !
 ! D27   D(4,5,6,7)            179.9989                                         !
 ! D28   D(4,5,6,8)             -0.0009                                         !
 ! D29   D(24,5,6,7)             0.0002                                         !
 ! D30   D(24,5,6,8)          -179.9996                                         !
 ! D31   D(5,6,8,9)             -0.0008                                         !
 ! D32   D(5,6,8,25)          -179.9997                                         !
 ! D33   D(7,6,8,9)            179.9994                                         !
 ! D34   D(7,6,8,25)             0.0005                                         !
 ! D35   D(6,8,9,3)              0.0013                                         !
 ! D36   D(6,8,9,10)          -179.9975                                         !
 ! D37   D(25,8,9,3)          -179.9997                                         !
 ! D38   D(25,8,9,10)            0.0014                                         !
 ! D39   D(3,9,10,11)         -179.9973                                         !
 ! D40   D(3,9,10,19)           -0.0002                                         !
 ! D41   D(8,9,10,11)            0.0017                                         !
 ! D42   D(8,9,10,19)          179.9988                                         !
 ! D43   D(9,10,11,12)         179.9951                                         !
 ! D44   D(19,10,11,12)         -0.0016                                         !
 ! D45   D(9,10,19,2)            0.0058                                         !
 ! D46   D(9,10,19,18)        -179.9928                                         !
 ! D47   D(11,10,19,2)        -179.9967                                         !
 ! D48   D(11,10,19,18)          0.0047                                         !
 ! D49   D(10,11,12,13)        179.9993                                         !
 ! D50   D(10,11,12,17)         -0.0024                                         !
 ! D51   D(11,12,13,14)        179.9979                                         !
 ! D52   D(11,12,13,26)         -0.0019                                         !
 ! D53   D(17,12,13,14)         -0.0006                                         !
 ! D54   D(17,12,13,26)        179.9996                                         !
 ! D55   D(11,12,17,16)       -179.9971                                         !
 ! D56   D(11,12,17,18)          0.0041                                         !
 ! D57   D(13,12,17,16)          0.0012                                         !
 ! D58   D(13,12,17,18)       -179.9976                                         !
 ! D59   D(12,13,14,15)         -0.0003                                         !
 ! D60   D(12,13,14,27)        179.9999                                         !
 ! D61   D(26,13,14,15)        179.9995                                         !
 ! D62   D(26,13,14,27)         -0.0003                                         !
 ! D63   D(13,14,15,16)          0.0005                                         !
 ! D64   D(13,14,15,28)       -179.9992                                         !
 ! D65   D(27,14,15,16)       -179.9997                                         !
 ! D66   D(27,14,15,28)          0.0006                                         !
 ! D67   D(14,15,16,17)          0.0001                                         !
 ! D68   D(28,15,16,17)        179.9998                                         !
 ! D69   D(15,16,17,12)         -0.001                                          !
 ! D70   D(15,16,17,18)        179.9978                                         !
 ! D71   D(12,17,18,19)         -0.0012                                         !
 ! D72   D(16,17,18,19)        179.9999                                         !
 ! D73   D(17,18,19,2)         179.9988                                         !
 ! D74   D(17,18,19,10)         -0.0029                                         !
 --------------------------------------------------------------------------------
                          Input orientation:                          
 ---------------------------------------------------------------------
 Center     Atomic      Atomic             Coordinates (Angstroms)
 Number     Number       Type             X           Y           Z
 ---------------------------------------------------------------------
      1          6           0        1.490000   -2.712328    0.449382
      2          7           0        1.146367   -1.328172    0.185951
      3          6           0        2.040287   -0.285954   -0.062094
      4          6           0        3.433721   -0.320571   -0.114132
      5          6           0        4.108144    0.870236   -0.382762
      6          6           0        3.401182    2.063986   -0.593436
      7         17           0        4.303675    3.537160   -0.928622
      8          6           0        2.011736    2.111288   -0.544099
      9          6           0        1.330037    0.923910   -0.275889
     10          6           0       -0.073546    0.592589   -0.149685
     11          7           0       -1.155452    1.329761   -0.252515
     12          6           0       -2.327477    0.652651   -0.066506
     13          6           0       -3.553995    1.353146   -0.155816
     14          6           0       -4.730532    0.666869    0.032187
     15          6           0       -4.666236   -0.721501    0.309209
     16          7           0       -3.549949   -1.419103    0.402599
     17          6           0       -2.376546   -0.760647    0.220349
     18          7           0       -1.238791   -1.507167    0.322735
     19          6           0       -0.136817   -0.825422    0.138808
     20          1           0        2.106832   -2.794798    1.351545
     21          1           0        2.034063   -3.145656   -0.397609
     22          1           0        0.558639   -3.260759    0.598187
     23          1           0        3.987904   -1.239446    0.047653
     24          1           0        5.191793    0.879637   -0.430564
     25          1           0        1.472695    3.037820   -0.708029
     26          1           0       -3.523292    2.417150   -0.371505
     27          1           0       -5.693853    1.163973   -0.027263
     28          1           0       -5.590588   -1.278656    0.460522
 ---------------------------------------------------------------------
                    Distance matrix (angstroms):
                    1          2          3          4          5
     1  C    0.000000
     2  N    1.450299   0.000000
     3  C    2.540023   1.395291   0.000000
     4  C    3.133066   2.517399   1.394835   0.000000
     5  C    4.514633   3.732098   2.390740   1.394643   0.000000
     6  C    5.249121   4.147093   2.767053   2.432469   1.403288
     7  Cl   6.990835   5.906126   4.526588   4.037611   2.729227
     8  C    4.952423   3.621012   2.445387   2.849711   2.441549
     9  C    3.711312   2.306276   1.419132   2.449568   2.780680
    10  C    3.704867   2.300036   2.290807   3.624368   4.197373
    11  N    4.881553   3.543336   3.586020   4.878858   5.285221
    12  C    5.114915   4.006868   4.467478   5.843016   6.447060
    13  C    6.506630   5.422147   5.830216   7.185488   7.680695
    14  C    7.091406   6.208202   6.838183   8.225051   8.850747
    15  C    6.471652   5.845476   6.730899   8.120915   8.944394
    16  N    5.203432   4.702190   5.722823   7.088401   8.031454
    17  C    4.337245   3.568499   4.451238   5.836501   6.713771
    18  N    2.985758   2.395773   3.520199   4.840581   5.894020
    19  C    2.510658   1.378963   2.251925   3.614912   4.600758
    20  H    1.095984   2.105254   2.880469   3.167119   4.521675
    21  H    1.095980   2.105182   2.879323   3.165518   4.519891
    22  H    1.091033   2.061614   3.388321   4.173512   5.534109
    23  H    2.927507   2.846284   2.171268   1.085184   2.156495
    24  H    5.232571   4.649730   3.380291   2.152080   1.084744
    25  H    5.865501   4.468510   3.433200   3.934097   3.427799
    26  H    7.219314   6.011981   6.193215   7.480734   7.786648
    27  H    8.176836   7.283190   7.868953   9.247920   9.812839
    28  H    7.224282   6.742729   7.712900   9.093200   9.969666
                    6          7          8          9         10
     6  C    0.000000
     7  Cl   1.759853   0.000000
     8  C    1.391126   2.726527   0.000000
     9  C    2.385425   4.012189   1.395177   0.000000
    10  C    3.799429   5.332664   2.609676   1.447669   0.000000
    11  N    4.627983   5.927208   3.275193   2.518515   1.313209
    12  C    5.923434   7.282569   4.602662   3.673531   2.256265
    13  C    7.005091   8.192077   5.630534   4.904327   3.562585
    14  C    8.274546   9.527781   6.919294   6.073835   4.661128
    15  C    8.582362  10.006384   7.303981   6.245398   4.798981
    16  N    7.838509   9.381690   6.655242   5.455669   4.054295
    17  C    6.482511   8.025997   5.299945   4.101554   2.696662
    18  N    5.926369   7.598029   4.940703   3.587110   2.447438
    19  C    4.626262   6.315813   3.702285   2.320301   1.448444
    20  H    5.391297   7.079476   5.260437   4.132886   4.299085
    21  H    5.389595   7.077651   5.259032   4.131808   4.298600
    22  H    6.152474   7.910003   5.681127   4.344021   3.975835
    23  H    3.415831   4.885570   3.934823   3.442244   4.459896
    24  H    2.153020   2.845917   3.412128   3.865106   5.280633
    25  H    2.163457   2.883131   1.084389   2.162339   2.946483
    26  H    6.937026   7.926299   5.546159   5.078751   3.908833
    27  H    9.156978  10.314797   7.780786   7.032388   5.650603
    28  H    9.650700  11.091358   8.384290   7.299907   5.857615
                   11         12         13         14         15
    11  N    0.000000
    12  C    1.366280   0.000000
    13  C    2.400605   1.415279   0.000000
    14  C    3.647146   2.405122   1.374976   0.000000
    15  C    4.104730   2.738475   2.399477   1.417197   0.000000
    16  N    3.703923   2.450849   2.827934   2.425337   1.319646
    17  C    2.466673   1.442951   2.448675   2.759431   2.291748
    18  N    2.895862   2.449808   3.710872   4.123482   3.516366
    19  C    2.415692   2.650632   4.063259   4.831203   4.533814
    20  H    5.497953   5.793002   7.177920   7.776464   7.159572
    21  H    5.497582   5.793082   7.178027   7.776877   7.160316
    22  H    4.973397   4.907776   6.226588   6.612257   5.816412
    23  H    5.757172   6.593717   7.977667   8.924427   8.673570
    24  H    6.365676   7.531500   8.762905   9.935388  10.014571
    25  H    3.167351   4.532317   5.330167   6.682017   7.270058
    26  H    2.608302   2.153242   1.086079   2.164227   3.408932
    27  H    4.547011   3.405213   2.152047   1.085649   2.173528
    28  H    5.194486   3.828262   3.384370   2.169846   1.089836
                   16         17         18         19         20
    16  N    0.000000
    17  C    1.357812   0.000000
    18  N    2.314214   1.364647   0.000000
    19  C    3.474409   2.242149   1.308798   0.000000
    20  H    5.898492   5.051539   3.729562   3.222286   0.000000
    21  H    5.899365   5.052090   3.730297   3.222413   1.785479
    22  H    4.506711   3.874097   2.526205   2.574015   1.783695
    23  H    7.548344   6.384771   5.240771   4.146450   2.767253
    24  H    9.077248   7.771356   6.900486   5.623655   5.118044
    25  H    6.806219   5.486975   5.391802   4.269930   6.217990
    26  H    3.913666   3.429827   4.593602   4.716239   7.863307
    27  H    3.384285   3.843176   5.206253   5.904738   8.855714
    28  H    2.046286   3.264365   4.359970   5.482020   7.895750
                   21         22         23         24         25
    21  H    0.000000
    22  H    1.783742   0.000000
    23  H    2.765753   4.018539   0.000000
    24  H    5.116183   6.298200   2.483657   0.000000
    25  H    6.216660   6.497214   5.019196   4.308878   0.000000
    26  H    7.863185   7.059824   8.364476   8.849867   5.045629
    27  H    8.856113   7.685251   9.975894  10.896825   7.438694
    28  H    7.896669   6.462249   9.587466  11.032316   8.359871
                   26         27         28
    26  H    0.000000
    27  H    2.529880   0.000000
    28  H    4.315664   2.492996   0.000000
 Stoichiometry    C14H9ClN4
 Framework group  C1[X(C14H9ClN4)]
 Deg. of freedom    78
 Full point group                 C1      NOp   1
 Largest Abelian subgroup         C1      NOp   1
 Largest concise Abelian subgroup C1      NOp   1
                         Standard orientation:                         
 ---------------------------------------------------------------------
 Center     Atomic      Atomic             Coordinates (Angstroms)
 Number     Number       Type             X           Y           Z
 ---------------------------------------------------------------------
      1          6           0        0.147243    3.395345    0.000521
      2          7           0        0.261508    1.949554   -0.000392
      3          6           0        1.446351    1.212678   -0.000197
      4          6           0        2.763518    1.671626   -0.000165
      5          6           0        3.786569    0.723788   -0.000033
      6          6           0        3.493821   -0.648624    0.000023
      7         17           0        4.824417   -1.800405    0.000160
      8          6           0        2.184502   -1.118641   -0.000032
      9          6           0        1.155614   -0.176353   -0.000128
     10          6           0       -0.288058   -0.283861   -0.000159
     11          7           0       -1.083967   -1.328392   -0.000077
     12          6           0       -2.417309   -1.030199   -0.000039
     13          6           0       -3.362772   -2.083344    0.000035
     14          6           0       -4.703337   -1.777654    0.000117
     15          6           0       -5.085303   -0.412902    0.000130
     16          7           0       -4.243988    0.603786    0.000058
     17          6           0       -2.915294    0.324097   -0.000037
     18          7           0       -2.069137    1.394742   -0.000155
     19          6           0       -0.801093    1.070681   -0.000241
     20          1           0        0.617326    3.823001   -0.892402
     21          1           0        0.619009    3.821906    0.893076
     22          1           0       -0.915507    3.642151    0.001625
     23          1           0        2.998393    2.731087   -0.000252
     24          1           0        4.822505    1.045511    0.000006
     25          1           0        1.966502   -2.180891    0.000016
     26          1           0       -2.993811   -3.104831    0.000027
     27          1           0       -5.462860   -2.553386    0.000174
     28          1           0       -6.144262   -0.155320    0.000208
 ---------------------------------------------------------------------
 Rotational constants (GHZ):           0.7976073           0.1898529           0.1535007
 Standard basis: 6-31G(d) (6D, 7F)
 There are   307 symmetry adapted cartesian basis functions of A   symmetry.
 There are   307 symmetry adapted basis functions of A   symmetry.
   307 basis functions,   592 primitive gaussians,   307 cartesian basis functions
    69 alpha electrons       69 beta electrons
       nuclear repulsion energy      1396.5786335942 Hartrees.
 NAtoms=   28 NActive=   28 NUniq=   28 SFac= 1.00D+00 NAtFMM=   60 NAOKFM=F Big=F
 Integral buffers will be    131072 words long.
 Regular integral format.
 Two-electron integral symmetry is turned on.
 One-electron integrals computed using PRISM.
 NBasis=   307 RedAO= T EigKep=  3.23D-04  NBF=   307
 NBsUse=   307 1.00D-06 EigRej= -1.00D+00 NBFU=   307
 Initial guess from the checkpoint file:  "/home/junhkim/WORK/Review_DD/TADF-Design/data/td_dft/results/mol_491/Gau-1879402.chk"
 B after Tr=     0.000000    0.000000   -0.000000
         Rot=    1.000000    0.000000   -0.000000   -0.000000 Ang=   0.00 deg.
 Requested convergence on RMS density matrix=1.00D-08 within  32 cycles.
 Requested convergence on MAX density matrix=1.00D-06.
 Requested convergence on             energy=1.00D-06.
 No special actions if energy rises.
 SCF Done:  E(RB3LYP) =  -1218.14109632     A.U. after    1 cycles
            NFock=  1  Conv=0.39D-08     -V/T= 2.0070
 QCSCF skips out because SCF is already converged.
 DoSCS=F DFT=T ScalE2(SS,OS)=  1.000000  1.000000
 ExpMin= 1.43D-01 ExpMax= 2.52D+04 ExpMxC= 3.78D+03 IAcc=3 IRadAn=         5 AccDes= 0.00D+00
 HarFok:  IExCor=  205 AccDes= 0.00D+00 IRadAn=         5 IDoV=-2 UseB2=F ITyADJ=14
 ICtDFT= 12500011 ScaDFX=  1.000000  1.000000  1.000000  1.000000
 GSVD:  LWork=        -713 too small for GESVD, short by        2990 words or        2990 for optimal perf.
 Range of M.O.s used for correlation:    24   307
 NBasis=   307 NAE=    69 NBE=    69 NFC=    23 NFV=     0
 NROrb=    284 NOA=    46 NOB=    46 NVA=   238 NVB=   238
 Orbital symmetries:
       Occupied  (A) (A) (A) (A) (A) (A) (A) (A) (A) (A) (A) (A)
                 (A) (A) (A) (A) (A) (A) (A) (A) (A) (A) (A) (A)
                 (A) (A) (A) (A) (A) (A) (A) (A) (A) (A) (A) (A)
                 (A) (A) (A) (A) (A) (A) (A) (A) (A) (A) (A) (A)
                 (A) (A) (A) (A) (A) (A) (A) (A) (A) (A) (A) (A)
                 (A) (A) (A) (A) (A) (A) (A) (A) (A)
       Virtual   (A) (A) (A) (A) (A) (A) (A) (A) (A) (A) (A) (A)
                 (A) (A) (A) (A) (A) (A) (A) (A) (A) (A) (A) (A)
                 (A) (A) (A) (A) (A) (A) (A) (A) (A) (A) (A) (A)
                 (A) (A) (A) (A) (A) (A) (A) (A) (A) (A) (A) (A)
                 (A) (A) (A) (A) (A) (A) (A) (A) (A) (A) (A) (A)
                 (A) (A) (A) (A) (A) (A) (A) (A) (A) (A) (A) (A)
                 (A) (A) (A) (A) (A) (A) (A) (A) (A) (A) (A) (A)
                 (A) (A) (A) (A) (A) (A) (A) (A) (A) (A) (A) (A)
                 (A) (A) (A) (A) (A) (A) (A) (A) (A) (A) (A) (A)
                 (A) (A) (A) (A) (A) (A) (A) (A) (A) (A) (A) (A)
                 (A) (A) (A) (A) (A) (A) (A) (A) (A) (A) (A) (A)
                 (A) (A) (A) (A) (A) (A) (A) (A) (A) (A) (A) (A)
                 (A) (A) (A) (A) (A) (A) (A) (A) (A) (A) (A) (A)
                 (A) (A) (A) (A) (A) (A) (A) (A) (A) (A) (A) (A)
                 (A) (A) (A) (A) (A) (A) (A) (A) (A) (A) (A) (A)
                 (A) (A) (A) (A) (A) (A) (A) (A) (A) (A) (A) (A)
                 (A) (A) (A) (A) (A) (A) (A) (A) (A) (A) (A) (A)
                 (A) (A) (A) (A) (A) (A) (A) (A) (A) (A) (A) (A)
                 (A) (A) (A) (A) (A) (A) (A) (A) (A) (A) (A) (A)
                 (A) (A) (A) (A) (A) (A) (A) (A) (A) (A)
     8 initial guesses have been made.
 Convergence on wavefunction:    0.001000000000000
 Iteration     1 Dimension     8 NMult     0 NNew      8
 CISAX will form     8 AO SS matrices at one time.
 New state      1 was old state      2
 New state      2 was old state      4
 New state      3 was old state      6
 New state      4 was old state      5
 Vector   2 SDiff=1.10D-03 TDiff=3.65D+00 assumed to be singlet.
 Vector   4 SDiff=3.69D+00 TDiff=1.15D-03 assumed to be triplet.
 Iteration     2 Dimension    12 NMult     8 NNew      4
 New state      2 was old state      4
 Iteration     3 Dimension    16 NMult    12 NNew      4
 Iteration     4 Dimension    20 NMult    16 NNew      4
 Iteration     5 Dimension    24 NMult    20 NNew      4
 Iteration     6 Dimension    28 NMult    24 NNew      4
 No map to state      2
 Iteration     7 Dimension    32 NMult    28 NNew      4
 Iteration     8 Dimension    34 NMult    32 NNew      2
 Iteration     9 Dimension    36 NMult    34 NNew      2
 Iteration    10 Dimension    38 NMult    36 NNew      2
 Iteration    11 Dimension    40 NMult    38 NNew      2
 ***********************************************************************
 Excited states from <AA,BB:AA,BB> singles matrix:
 ***********************************************************************
 
 Ground to excited state transition densities written to RWF  633
 Ground to excited state transition electric dipole moments (Au):
       state          X           Y           Z        Dip. S.      Osc.
         1        -0.0000     -0.0000      0.0000      0.0000      0.0000
         2        -0.3885      0.3527     -0.0002      0.2753      0.0209
 Ground to excited state transition velocity dipole moments (Au):
       state          X           Y           Z        Dip. S.      Osc.
         1         0.0000      0.0000     -0.0000      0.0000      0.0000
         2         0.0459     -0.0544     -0.0001      0.0051      0.0297
 Ground to excited state transition magnetic dipole moments (Au):
       state          X           Y           Z
         1        -0.0000     -0.0000     -0.0000
         2         0.0003     -0.0014     -0.2723
 Ground to excited state transition velocity quadrupole moments (Au):
       state          XX          YY          ZZ          XY          XZ          YZ
         1         0.0000     -0.0000      0.0000      0.0000      0.0000     -0.0000
         2        -0.3502      0.0014      0.0062     -0.0937      0.0013      0.0005
 <0|del|b> * <b|rxdel|0> + <0|del|b> * <b|delr+rdel|0>
 Rotatory Strengths (R) in cgs (10**-40 erg-esu-cm/Gauss)
       state          XX          YY          ZZ    R(velocity)    E-M Angle
         1        -0.0000     -0.0000     -0.0000     -0.0000       90.00
         2         0.5321      0.1536     -0.0051      0.2268       89.68
 1/2[<0|r|b>*<b|rxdel|0> + (<0|rxdel|b>*<b|r|0>)*]
 Rotatory Strengths (R) in cgs (10**-40 erg-esu-cm/Gauss)
       state          XX          YY          ZZ     R(length)
         1        -0.0000     -0.0000      0.0000     -0.0000
         2         0.0944      0.3458     -0.0289      0.1371
  1/2[<0|del|b>*<b|r|0> + (<0|r|b>*<b|del|0>)*] (Au)
       state          X           Y           Z        Dip. S.   Osc.(frdel)
         1        -0.0000     -0.0000     -0.0000      0.0000      0.0000
         2        -0.0178     -0.0192      0.0000      0.0370      0.0247

 Excitation energies and oscillator strengths:
 
 Excited State   1:      Triplet-A      2.4624 eV  503.50 nm  f=0.0000  <S**2>=2.000
      66 -> 70        -0.18950
      68 -> 70         0.17709
      69 -> 70         0.63900
 This state for optimization and/or second-order correction.
 Total Energy, E(TD-HF/TD-DFT) =  -1218.05060383    
 Copying the excited state density for this state as the 1-particle RhoCI density.
 
 Excited State   2:      Singlet-A      3.0964 eV  400.42 nm  f=0.0209  <S**2>=0.000
      69 -> 70         0.69803
 SavETr:  write IOETrn=   770 NScale= 10 NData=  16 NLR=1 NState=    2 LETran=      46.

 **********************************************************************

            Population analysis using the SCF Density.

 **********************************************************************

 Orbital symmetries:
       Occupied  (A) (A) (A) (A) (A) (A) (A) (A) (A) (A) (A) (A)
                 (A) (A) (A) (A) (A) (A) (A) (A) (A) (A) (A) (A)
                 (A) (A) (A) (A) (A) (A) (A) (A) (A) (A) (A) (A)
                 (A) (A) (A) (A) (A) (A) (A) (A) (A) (A) (A) (A)
                 (A) (A) (A) (A) (A) (A) (A) (A) (A) (A) (A) (A)
                 (A) (A) (A) (A) (A) (A) (A) (A) (A)
       Virtual   (A) (A) (A) (A) (A) (A) (A) (A) (A) (A) (A) (A)
                 (A) (A) (A) (A) (A) (A) (A) (A) (A) (A) (A) (A)
                 (A) (A) (A) (A) (A) (A) (A) (A) (A) (A) (A) (A)
                 (A) (A) (A) (A) (A) (A) (A) (A) (A) (A) (A) (A)
                 (A) (A) (A) (A) (A) (A) (A) (A) (A) (A) (A) (A)
                 (A) (A) (A) (A) (A) (A) (A) (A) (A) (A) (A) (A)
                 (A) (A) (A) (A) (A) (A) (A) (A) (A) (A) (A) (A)
                 (A) (A) (A) (A) (A) (A) (A) (A) (A) (A) (A) (A)
                 (A) (A) (A) (A) (A) (A) (A) (A) (A) (A) (A) (A)
                 (A) (A) (A) (A) (A) (A) (A) (A) (A) (A) (A) (A)
                 (A) (A) (A) (A) (A) (A) (A) (A) (A) (A) (A) (A)
                 (A) (A) (A) (A) (A) (A) (A) (A) (A) (A) (A) (A)
                 (A) (A) (A) (A) (A) (A) (A) (A) (A) (A) (A) (A)
                 (A) (A) (A) (A) (A) (A) (A) (A) (A) (A) (A) (A)
                 (A) (A) (A) (A) (A) (A) (A) (A) (A) (A) (A) (A)
                 (A) (A) (A) (A) (A) (A) (A) (A) (A) (A) (A) (A)
                 (A) (A) (A) (A) (A) (A) (A) (A) (A) (A) (A) (A)
                 (A) (A) (A) (A) (A) (A) (A) (A) (A) (A) (A) (A)
                 (A) (A) (A) (A) (A) (A) (A) (A) (A) (A) (A) (A)
                 (A) (A) (A) (A) (A) (A) (A) (A) (A) (A)
 The electronic state is 1-A.
 Alpha  occ. eigenvalues -- -101.54995 -14.39925 -14.35480 -14.34500 -14.33133
 Alpha  occ. eigenvalues --  -10.27394 -10.26168 -10.25720 -10.25040 -10.24484
 Alpha  occ. eigenvalues --  -10.23851 -10.23715 -10.23271 -10.21788 -10.21626
 Alpha  occ. eigenvalues --  -10.21569 -10.21354 -10.21239 -10.20477  -9.46616
 Alpha  occ. eigenvalues --   -7.23017  -7.22036  -7.22015  -1.02554  -0.97855
 Alpha  occ. eigenvalues --   -0.93930  -0.91331  -0.89208  -0.84323  -0.81314
 Alpha  occ. eigenvalues --   -0.79618  -0.76225  -0.75414  -0.71833  -0.68432
 Alpha  occ. eigenvalues --   -0.65431  -0.63039  -0.61464  -0.59756  -0.57286
 Alpha  occ. eigenvalues --   -0.55636  -0.51889  -0.51446  -0.49089  -0.49013
 Alpha  occ. eigenvalues --   -0.48072  -0.47255  -0.46140  -0.45795  -0.44453
 Alpha  occ. eigenvalues --   -0.44368  -0.41758  -0.41269  -0.41160  -0.39330
 Alpha  occ. eigenvalues --   -0.39039  -0.38394  -0.37009  -0.36356  -0.34635
 Alpha  occ. eigenvalues --   -0.32043  -0.31548  -0.30724  -0.29384  -0.28230
 Alpha  occ. eigenvalues --   -0.26795  -0.24400  -0.24042  -0.22118
 Alpha virt. eigenvalues --   -0.08573  -0.03336  -0.00871  -0.00272   0.01049
 Alpha virt. eigenvalues --    0.02669   0.09010   0.09205   0.10275   0.11522
 Alpha virt. eigenvalues --    0.13888   0.14188   0.14307   0.15527   0.15849
 Alpha virt. eigenvalues --    0.16611   0.17280   0.17577   0.18903   0.20325
 Alpha virt. eigenvalues --    0.20842   0.23529   0.24244   0.25188   0.26154
 Alpha virt. eigenvalues --    0.28270   0.28914   0.30681   0.32263   0.34616
 Alpha virt. eigenvalues --    0.34980   0.37112   0.37837   0.39614   0.40643
 Alpha virt. eigenvalues --    0.41964   0.42709   0.43167   0.44224   0.45916
 Alpha virt. eigenvalues --    0.47713   0.48082   0.49443   0.50509   0.50614
 Alpha virt. eigenvalues --    0.52465   0.52479   0.53618   0.53718   0.54217
 Alpha virt. eigenvalues --    0.56182   0.56456   0.57996   0.58446   0.58474
 Alpha virt. eigenvalues --    0.59141   0.59146   0.59751   0.60200   0.62561
 Alpha virt. eigenvalues --    0.62600   0.63361   0.64689   0.64770   0.65749
 Alpha virt. eigenvalues --    0.66191   0.68076   0.68668   0.69540   0.71634
 Alpha virt. eigenvalues --    0.72630   0.72838   0.75123   0.78526   0.78754
 Alpha virt. eigenvalues --    0.79048   0.80281   0.81286   0.81856   0.82059
 Alpha virt. eigenvalues --    0.83017   0.83805   0.84292   0.84971   0.86134
 Alpha virt. eigenvalues --    0.87163   0.87335   0.87775   0.88878   0.89836
 Alpha virt. eigenvalues --    0.90438   0.91555   0.93502   0.93846   0.94119
 Alpha virt. eigenvalues --    0.94777   0.94814   0.96085   0.97206   0.99039
 Alpha virt. eigenvalues --    1.00438   1.02939   1.04469   1.07871   1.08616
 Alpha virt. eigenvalues --    1.10648   1.13285   1.13687   1.15129   1.17814
 Alpha virt. eigenvalues --    1.18480   1.19544   1.23397   1.23447   1.25332
 Alpha virt. eigenvalues --    1.26883   1.28729   1.29817   1.30711   1.31930
 Alpha virt. eigenvalues --    1.33355   1.35014   1.36998   1.38735   1.39368
 Alpha virt. eigenvalues --    1.40995   1.43088   1.43330   1.45887   1.46324
 Alpha virt. eigenvalues --    1.47218   1.48750   1.49232   1.50483   1.51172
 Alpha virt. eigenvalues --    1.53960   1.59056   1.63204   1.65296   1.67479
 Alpha virt. eigenvalues --    1.70400   1.71851   1.73882   1.75997   1.77610
 Alpha virt. eigenvalues --    1.79067   1.79131   1.80177   1.82041   1.83364
 Alpha virt. eigenvalues --    1.84856   1.85337   1.86754   1.89640   1.90532
 Alpha virt. eigenvalues --    1.92391   1.94947   1.95016   1.97585   1.99658
 Alpha virt. eigenvalues --    2.01314   2.02775   2.02931   2.05019   2.08250
 Alpha virt. eigenvalues --    2.10894   2.11621   2.12817   2.13729   2.16267
 Alpha virt. eigenvalues --    2.16947   2.18524   2.19624   2.21062   2.21391
 Alpha virt. eigenvalues --    2.23732   2.24878   2.26362   2.27338   2.31820
 Alpha virt. eigenvalues --    2.32463   2.33330   2.34593   2.37341   2.37693
 Alpha virt. eigenvalues --    2.40574   2.41792   2.43485   2.47476   2.51011
 Alpha virt. eigenvalues --    2.51402   2.52670   2.58998   2.60295   2.61280
 Alpha virt. eigenvalues --    2.61532   2.63743   2.65317   2.66371   2.66499
 Alpha virt. eigenvalues --    2.67539   2.70564   2.72609   2.75459   2.75913
 Alpha virt. eigenvalues --    2.78894   2.80837   2.83882   2.86094   2.89937
 Alpha virt. eigenvalues --    2.97312   2.99487   3.02336   3.06271   3.22828
 Alpha virt. eigenvalues --    3.26028   3.35589   3.45418   3.53043   4.02963
 Alpha virt. eigenvalues --    4.04459   4.06194   4.07869   4.10291   4.14238
 Alpha virt. eigenvalues --    4.15699   4.20015   4.25325   4.27503   4.30515
 Alpha virt. eigenvalues --    4.36514   4.42298   4.43113   4.51596   4.63207
 Alpha virt. eigenvalues --    4.67931   4.76548   4.85356
          Condensed to atoms (all electrons):
               1          2          3          4          5          6
     1  C    4.999475   0.289819  -0.043522  -0.002838  -0.000131   0.000011
     2  N    0.289819   7.153998   0.276604  -0.093134   0.005757  -0.000280
     3  C   -0.043522   0.276604   4.699626   0.481843   0.001206  -0.036450
     4  C   -0.002838  -0.093134   0.481843   5.076427   0.497431  -0.023732
     5  C   -0.000131   0.005757   0.001206   0.497431   4.927684   0.512054
     6  C    0.000011  -0.000280  -0.036450  -0.023732   0.512054   5.002655
     7  Cl   0.000000   0.000004   0.000826   0.004146  -0.062502   0.234053
     8  C   -0.000070   0.009900  -0.074906  -0.051719  -0.034121   0.463164
     9  C    0.004493  -0.031354   0.456138  -0.051738  -0.035507   0.005928
    10  C    0.006704  -0.084194   0.023861   0.014501   0.000131   0.008372
    11  N   -0.000096   0.006418   0.008141  -0.000125   0.000007   0.000204
    12  C   -0.000019   0.001061   0.000055   0.000006   0.000000   0.000004
    13  C    0.000000   0.000009   0.000006  -0.000000  -0.000000  -0.000000
    14  C   -0.000000   0.000000  -0.000000   0.000000   0.000000   0.000000
    15  C    0.000000   0.000000  -0.000000   0.000000   0.000000  -0.000000
    16  N    0.000005  -0.000046  -0.000001  -0.000000   0.000000  -0.000000
    17  C    0.000059   0.002426  -0.000246  -0.000002   0.000000   0.000000
    18  N   -0.006916  -0.080282   0.000006  -0.000180   0.000002   0.000000
    19  C   -0.035415   0.278615  -0.093339   0.002626  -0.000134  -0.000321
    20  H    0.374905  -0.040859  -0.000655   0.002532  -0.000000  -0.000001
    21  H    0.374875  -0.040862  -0.000657   0.002542  -0.000000  -0.000001
    22  H    0.375651  -0.032791   0.001975   0.000063   0.000001  -0.000000
    23  H    0.004479  -0.007833  -0.033640   0.353133  -0.040654   0.004063
    24  H   -0.000001  -0.000093   0.002591  -0.034219   0.360361  -0.038384
    25  H    0.000003  -0.000087   0.004389   0.000270   0.004071  -0.045861
    26  H    0.000000  -0.000000  -0.000000  -0.000000   0.000000   0.000000
    27  H   -0.000000  -0.000000   0.000000   0.000000  -0.000000  -0.000000
    28  H    0.000000  -0.000000  -0.000000  -0.000000   0.000000  -0.000000
               7          8          9         10         11         12
     1  C    0.000000  -0.000070   0.004493   0.006704  -0.000096  -0.000019
     2  N    0.000004   0.009900  -0.031354  -0.084194   0.006418   0.001061
     3  C    0.000826  -0.074906   0.456138   0.023861   0.008141   0.000055
     4  C    0.004146  -0.051719  -0.051738   0.014501  -0.000125   0.000006
     5  C   -0.062502  -0.034121  -0.035507   0.000131   0.000007   0.000000
     6  C    0.234053   0.463164   0.005928   0.008372   0.000204   0.000004
     7  Cl  16.908242  -0.064348   0.002952  -0.000119   0.000001  -0.000000
     8  C   -0.064348   5.198017   0.456259  -0.101763  -0.004917  -0.000046
     9  C    0.002952   0.456259   4.967292   0.243866  -0.089131   0.000915
    10  C   -0.000119  -0.101763   0.243866   5.071962   0.460356  -0.046358
    11  N    0.000001  -0.004917  -0.089131   0.460356   7.051476   0.370566
    12  C   -0.000000  -0.000046   0.000915  -0.046358   0.370566   4.779505
    13  C    0.000000  -0.000003  -0.000569  -0.000218  -0.067818   0.481037
    14  C   -0.000000  -0.000000   0.000006  -0.000155   0.005449  -0.009956
    15  C    0.000000   0.000000  -0.000000   0.000110  -0.000061  -0.029232
    16  N   -0.000000  -0.000000   0.000023   0.000458   0.005303  -0.065756
    17  C   -0.000000   0.000009   0.004048  -0.027575  -0.058714   0.376291
    18  N   -0.000000  -0.000076   0.008542  -0.057118  -0.019069  -0.099502
    19  C    0.000002   0.016883  -0.020935   0.278139  -0.096187  -0.009182
    20  H    0.000000  -0.000008  -0.000132  -0.000031   0.000002   0.000000
    21  H    0.000000  -0.000008  -0.000131  -0.000030   0.000002   0.000000
    22  H   -0.000000   0.000008  -0.000038   0.000412  -0.000012   0.000038
    23  H   -0.000140   0.000586   0.004192  -0.000283   0.000001  -0.000000
    24  H    0.000029   0.004116   0.000824   0.000007  -0.000000   0.000000
    25  H   -0.000175   0.361684  -0.032632  -0.008251   0.003715  -0.000015
    26  H    0.000000   0.000005  -0.000012   0.000613   0.000103  -0.034029
    27  H    0.000000  -0.000000  -0.000000  -0.000001  -0.000082   0.003943
    28  H    0.000000  -0.000000   0.000000   0.000002   0.000009   0.000549
              13         14         15         16         17         18
     1  C    0.000000  -0.000000   0.000000   0.000005   0.000059  -0.006916
     2  N    0.000009   0.000000   0.000000  -0.000046   0.002426  -0.080282
     3  C    0.000006  -0.000000  -0.000000  -0.000001  -0.000246   0.000006
     4  C   -0.000000   0.000000   0.000000  -0.000000  -0.000002  -0.000180
     5  C   -0.000000   0.000000   0.000000   0.000000   0.000000   0.000002
     6  C   -0.000000   0.000000  -0.000000  -0.000000   0.000000   0.000000
     7  Cl   0.000000  -0.000000   0.000000  -0.000000  -0.000000  -0.000000
     8  C   -0.000003  -0.000000   0.000000  -0.000000   0.000009  -0.000076
     9  C   -0.000569   0.000006  -0.000000   0.000023   0.004048   0.008542
    10  C   -0.000218  -0.000155   0.000110   0.000458  -0.027575  -0.057118
    11  N   -0.067818   0.005449  -0.000061   0.005303  -0.058714  -0.019069
    12  C    0.481037  -0.009956  -0.029232  -0.065756   0.376291  -0.099502
    13  C    5.000209   0.532814  -0.031081  -0.040171  -0.063813   0.004020
    14  C    0.532814   4.994720   0.449439  -0.023708  -0.037502   0.000118
    15  C   -0.031081   0.449439   4.790341   0.478585  -0.051171   0.003076
    16  N   -0.040171  -0.023708   0.478585   6.863690   0.386669  -0.086147
    17  C   -0.063813  -0.037502  -0.051171   0.386669   4.705240   0.395079
    18  N    0.004020   0.000118   0.003076  -0.086147   0.395079   7.039915
    19  C    0.002453   0.000033  -0.000013  -0.000758  -0.048878   0.422787
    20  H   -0.000000   0.000000  -0.000000  -0.000000  -0.000000   0.000356
    21  H   -0.000000   0.000000  -0.000000  -0.000000  -0.000000   0.000356
    22  H   -0.000000  -0.000000   0.000001  -0.000034   0.000036   0.016460
    23  H    0.000000  -0.000000   0.000000  -0.000000  -0.000000   0.000001
    24  H   -0.000000   0.000000  -0.000000  -0.000000   0.000000  -0.000000
    25  H   -0.000003   0.000000   0.000000  -0.000000   0.000002   0.000000
    26  H    0.348101  -0.046483   0.004994  -0.000531   0.005836  -0.000134
    27  H   -0.037286   0.352012  -0.035564   0.004424   0.000566   0.000014
    28  H    0.003440  -0.064808   0.378343  -0.053722   0.004592  -0.000095
              19         20         21         22         23         24
     1  C   -0.035415   0.374905   0.374875   0.375651   0.004479  -0.000001
     2  N    0.278615  -0.040859  -0.040862  -0.032791  -0.007833  -0.000093
     3  C   -0.093339  -0.000655  -0.000657   0.001975  -0.033640   0.002591
     4  C    0.002626   0.002532   0.002542   0.000063   0.353133  -0.034219
     5  C   -0.000134  -0.000000  -0.000000   0.000001  -0.040654   0.360361
     6  C   -0.000321  -0.000001  -0.000001  -0.000000   0.004063  -0.038384
     7  Cl   0.000002   0.000000   0.000000  -0.000000  -0.000140   0.000029
     8  C    0.016883  -0.000008  -0.000008   0.000008   0.000586   0.004116
     9  C   -0.020935  -0.000132  -0.000131  -0.000038   0.004192   0.000824
    10  C    0.278139  -0.000031  -0.000030   0.000412  -0.000283   0.000007
    11  N   -0.096187   0.000002   0.000002  -0.000012   0.000001  -0.000000
    12  C   -0.009182   0.000000   0.000000   0.000038  -0.000000   0.000000
    13  C    0.002453  -0.000000  -0.000000  -0.000000   0.000000  -0.000000
    14  C    0.000033   0.000000   0.000000  -0.000000  -0.000000   0.000000
    15  C   -0.000013  -0.000000  -0.000000   0.000001   0.000000  -0.000000
    16  N   -0.000758  -0.000000  -0.000000  -0.000034  -0.000000  -0.000000
    17  C   -0.048878  -0.000000  -0.000000   0.000036  -0.000000   0.000000
    18  N    0.422787   0.000356   0.000356   0.016460   0.000001  -0.000000
    19  C    4.750493   0.000973   0.000975  -0.002356   0.000027   0.000002
    20  H    0.000973   0.555207  -0.041783  -0.023273   0.000644  -0.000000
    21  H    0.000975  -0.041783   0.555210  -0.023241   0.000649  -0.000000
    22  H   -0.002356  -0.023273  -0.023241   0.471735  -0.000048  -0.000000
    23  H    0.000027   0.000644   0.000649  -0.000048   0.572821  -0.005090
    24  H    0.000002  -0.000000  -0.000000  -0.000000  -0.005090   0.550326
    25  H    0.000146  -0.000000  -0.000000  -0.000000   0.000015  -0.000154
    26  H    0.000035  -0.000000  -0.000000   0.000000   0.000000  -0.000000
    27  H   -0.000002   0.000000   0.000000  -0.000000   0.000000  -0.000000
    28  H   -0.000007  -0.000000  -0.000000  -0.000000  -0.000000  -0.000000
              25         26         27         28
     1  C    0.000003   0.000000  -0.000000   0.000000
     2  N   -0.000087  -0.000000  -0.000000  -0.000000
     3  C    0.004389  -0.000000   0.000000  -0.000000
     4  C    0.000270  -0.000000   0.000000  -0.000000
     5  C    0.004071   0.000000  -0.000000   0.000000
     6  C   -0.045861   0.000000  -0.000000  -0.000000
     7  Cl  -0.000175   0.000000   0.000000   0.000000
     8  C    0.361684   0.000005  -0.000000  -0.000000
     9  C   -0.032632  -0.000012  -0.000000   0.000000
    10  C   -0.008251   0.000613  -0.000001   0.000002
    11  N    0.003715   0.000103  -0.000082   0.000009
    12  C   -0.000015  -0.034029   0.003943   0.000549
    13  C   -0.000003   0.348101  -0.037286   0.003440
    14  C    0.000000  -0.046483   0.352012  -0.064808
    15  C    0.000000   0.004994  -0.035564   0.378343
    16  N   -0.000000  -0.000531   0.004424  -0.053722
    17  C    0.000002   0.005836   0.000566   0.004592
    18  N    0.000000  -0.000134   0.000014  -0.000095
    19  C    0.000146   0.000035  -0.000002  -0.000007
    20  H   -0.000000  -0.000000   0.000000  -0.000000
    21  H   -0.000000  -0.000000   0.000000  -0.000000
    22  H   -0.000000   0.000000  -0.000000  -0.000000
    23  H    0.000015   0.000000   0.000000  -0.000000
    24  H   -0.000154  -0.000000  -0.000000  -0.000000
    25  H    0.537224   0.000005  -0.000000  -0.000000
    26  H    0.000005   0.569322  -0.005743  -0.000162
    27  H   -0.000000  -0.005743   0.576124  -0.001512
    28  H   -0.000000  -0.000162  -0.001512   0.585819
 Mulliken charges:
               1
     1  C   -0.341469
     2  N   -0.612797
     3  C    0.326149
     4  C   -0.177834
     5  C   -0.135656
     6  C   -0.085475
     7  Cl  -0.022971
     8  C   -0.178648
     9  C    0.106701
    10  C    0.216603
    11  N   -0.575541
    12  C    0.280126
    13  C   -0.131128
    14  C   -0.151980
    15  C    0.042234
    16  N   -0.468283
    17  C    0.407050
    18  N   -0.541213
    19  C    0.553339
    20  H    0.172123
    21  H    0.172104
    22  H    0.215413
    23  H    0.147074
    24  H    0.159688
    25  H    0.175652
    26  H    0.158080
    27  H    0.143107
    28  H    0.147552
 Sum of Mulliken charges =  -0.00000
 Mulliken charges with hydrogens summed into heavy atoms:
               1
     1  C    0.218171
     2  N   -0.612797
     3  C    0.326149
     4  C   -0.030760
     5  C    0.024032
     6  C   -0.085475
     7  Cl  -0.022971
     8  C   -0.002995
     9  C    0.106701
    10  C    0.216603
    11  N   -0.575541
    12  C    0.280126
    13  C    0.026951
    14  C   -0.008873
    15  C    0.189786
    16  N   -0.468283
    17  C    0.407050
    18  N   -0.541213
    19  C    0.553339
 Electronic spatial extent (au):  <R**2>=           6417.0902
 Charge=              0.0000 electrons
 Dipole moment (field-independent basis, Debye):
    X=              0.2701    Y=              1.2864    Z=              0.0010  Tot=              1.3144
 Quadrupole moment (field-independent basis, Debye-Ang):
   XX=           -113.7068   YY=           -103.7150   ZZ=           -115.8923
   XY=             19.8292   XZ=             -0.0012   YZ=              0.0028
 Traceless Quadrupole moment (field-independent basis, Debye-Ang):
   XX=             -2.6021   YY=              7.3897   ZZ=             -4.7876
   XY=             19.8292   XZ=             -0.0012   YZ=              0.0028
 Octapole moment (field-independent basis, Debye-Ang**2):
  XXX=            -53.7154  YYY=             21.6541  ZZZ=              0.0009  XYY=             11.0008
  XXY=            -27.7075  XXZ=              0.0048  XZZ=              3.0033  YZZ=              2.3735
  YYZ=              0.0086  XYZ=             -0.0004
 Hexadecapole moment (field-independent basis, Debye-Ang**3):
 XXXX=          -6370.7835 YYYY=          -1597.2418 ZZZZ=           -122.0662 XXXY=            351.6615
 XXXZ=             -0.0287 YYYX=             55.5987 YYYZ=              0.0151 ZZZX=              0.0072
 ZZZY=              0.0000 XXYY=          -1377.4565 XXZZ=          -1192.9741 YYZZ=           -322.0061
 XXYZ=             -0.0004 YYXZ=             -0.0075 ZZXY=            -20.0462
 N-N= 1.396578633594D+03 E-N=-5.644879351876D+03  KE= 1.209629660427D+03
 1\1\GINC-CNODE13\SP\RB3LYP TD-FC\6-31G(d)\C14H9Cl1N4\JUNHKIM\19-Jan-20
 26\0\\# b3lyp/6-31g* TD=(Nstates=1,50-50) Geom=Check Guess=Read SCF=XQ
 C\\TD-DFT calculation\\0,1\C,0,1.4899995681,-2.7123284622,0.4493821275
 \N,0,1.146366923,-1.32817233,0.1859510884\C,0,2.0402866302,-0.28595394
 03,-0.0620936859\C,0,3.4337207896,-0.3205707328,-0.1141316012\C,0,4.10
 81435189,0.8702362476,-0.3827615603\C,0,3.4011823788,2.0639862422,-0.5
 934360629\Cl,0,4.3036746108,3.5371603209,-0.9286223218\C,0,2.011736307
 9,2.1112884738,-0.5440992211\C,0,1.3300368369,0.9239104202,-0.27588872
 34\C,0,-0.0735459295,0.5925894987,-0.1496846617\N,0,-1.1554519451,1.32
 97610589,-0.2525150519\C,0,-2.3274774406,0.652651342,-0.0665059087\C,0
 ,-3.5539949681,1.3531463491,-0.1558155201\C,0,-4.7305318605,0.66686904
 81,0.0321865563\C,0,-4.6662355667,-0.7215009898,0.3092094761\N,0,-3.54
 99492829,-1.4191028764,0.402599444\C,0,-2.3765459692,-0.7606471848,0.2
 203492566\N,0,-1.2387907443,-1.5071666118,0.3227352572\C,0,-0.13681653
 77,-0.8254224979,0.1388075071\H,0,2.106831758,-2.7947981299,1.35154472
 44\H,0,2.0340629477,-3.1456556274,-0.3976094302\H,0,0.5586386079,-3.26
 07588861,0.5981869397\H,0,3.9879040264,-1.2394456449,0.0476532201\H,0,
 5.1917931568,0.8796371157,-0.4305643872\H,0,1.472695263,3.037819869,-0
 .7080286452\H,0,-3.5232923107,2.4171498865,-0.3715049132\H,0,-5.693853
 243,1.1639725558,-0.0272632299\H,0,-5.5905875256,-1.2786555144,0.46052
 23273\\Version=ES64L-G16RevB.01\State=1-A\HF=-1218.1410963\RMSD=3.938e
 -09\PG=C01 [X(C14H9Cl1N4)]\\@


 IF YOU WISH TO UNDERSTAND THE FRAGRANCE OF THE ROSE, 
 OR THE TENACITY OF THE OAK; 
 IF YOU ARE NOT SATISFIED UNTIL YOU KNOW THE SECRET PATHS 
 BY WHICH THE SUNSHINE AND THE AIR ACHIEVE THESE WONDERS; 
 IF YOU WISH TO SEE THE PATTERN WHICH UNDERLIES ONE LARGE FIELD OF 
 HUMAN EXPERIENCE AND HUMAN MEASUREMENT, THEN TAKE UP CHEMISTRY.

                                         -- C. A. COULSON, 1973.
 Job cpu time:       0 days  0 hours 30 minutes 23.2 seconds.
 Elapsed time:       0 days  0 hours  1 minutes 54.8 seconds.
 File lengths (MBytes):  RWF=    549 Int=      0 D2E=      0 Chk=     67 Scr=      2
 Normal termination of Gaussian 16 at Mon Jan 19 00:02:28 2026.
