 Entering Gaussian System, Link 0=g16
 Initial command:
 /appl/Gaussian16/AVX_revB01/g16/l1.exe "/home/junhkim/WORK/Review_DD/TADF-Design/data/td_dft/results/mol_1002/Gau-3141874.inp" -scrdir="/home/junhkim/WORK/Review_DD/TADF-Design/data/td_dft/results/mol_1002/"
 Entering Link 1 = /appl/Gaussian16/AVX_revB01/g16/l1.exe PID=   3141876.
  
 Copyright (c) 1988-2017, Gaussian, Inc.  All Rights Reserved.
  
 This is part of the Gaussian(R) 16 program.  It is based on
 the Gaussian(R) 09 system (copyright 2009, Gaussian, Inc.),
 the Gaussian(R) 03 system (copyright 2003, Gaussian, Inc.),
 the Gaussian(R) 98 system (copyright 1998, Gaussian, Inc.),
 the Gaussian(R) 94 system (copyright 1995, Gaussian, Inc.),
 the Gaussian 92(TM) system (copyright 1992, Gaussian, Inc.),
 the Gaussian 90(TM) system (copyright 1990, Gaussian, Inc.),
 the Gaussian 88(TM) system (copyright 1988, Gaussian, Inc.),
 the Gaussian 86(TM) system (copyright 1986, Carnegie Mellon
 University), and the Gaussian 82(TM) system (copyright 1983,
 Carnegie Mellon University). Gaussian is a federally registered
 trademark of Gaussian, Inc.
  
 This software contains proprietary and confidential information,
 including trade secrets, belonging to Gaussian, Inc.
  
 This software is provided under written license and may be
 used, copied, transmitted, or stored only in accord with that
 written license.
  
 The following legend is applicable only to US Government
 contracts under FAR:
  
                    RESTRICTED RIGHTS LEGEND
  
 Use, reproduction and disclosure by the US Government is
 subject to restrictions as set forth in subparagraphs (a)
 and (c) of the Commercial Computer Software - Restricted
 Rights clause in FAR 52.227-19.
  
 Gaussian, Inc.
 340 Quinnipiac St., Bldg. 40, Wallingford CT 06492
  
  
 ---------------------------------------------------------------
 Warning -- This program may not be used in any manner that
 competes with the business of Gaussian, Inc. or will provide
 assistance to any competitor of Gaussian, Inc.  The licensee
 of this program is prohibited from giving any competitor of
 Gaussian, Inc. access to this program.  By using this program,
 the user acknowledges that Gaussian, Inc. is engaged in the
 business of creating and licensing software in the field of
 computational chemistry and represents and warrants to the
 licensee that it is not a competitor of Gaussian, Inc. and that
 it will not use this program in any manner prohibited above.
 ---------------------------------------------------------------
  

 Cite this work as:
 Gaussian 16, Revision B.01,
 M. J. Frisch, G. W. Trucks, H. B. Schlegel, G. E. Scuseria, 
 M. A. Robb, J. R. Cheeseman, G. Scalmani, V. Barone, 
 G. A. Petersson, H. Nakatsuji, X. Li, M. Caricato, A. V. Marenich, 
 J. Bloino, B. G. Janesko, R. Gomperts, B. Mennucci, H. P. Hratchian, 
 J. V. Ortiz, A. F. Izmaylov, J. L. Sonnenberg, D. Williams-Young, 
 F. Ding, F. Lipparini, F. Egidi, J. Goings, B. Peng, A. Petrone, 
 T. Henderson, D. Ranasinghe, V. G. Zakrzewski, J. Gao, N. Rega, 
 G. Zheng, W. Liang, M. Hada, M. Ehara, K. Toyota, R. Fukuda, 
 J. Hasegawa, M. Ishida, T. Nakajima, Y. Honda, O. Kitao, H. Nakai, 
 T. Vreven, K. Throssell, J. A. Montgomery, Jr., J. E. Peralta, 
 F. Ogliaro, M. J. Bearpark, J. J. Heyd, E. N. Brothers, K. N. Kudin, 
 V. N. Staroverov, T. A. Keith, R. Kobayashi, J. Normand, 
 K. Raghavachari, A. P. Rendell, J. C. Burant, S. S. Iyengar, 
 J. Tomasi, M. Cossi, J. M. Millam, M. Klene, C. Adamo, R. Cammi, 
 J. W. Ochterski, R. L. Martin, K. Morokuma, O. Farkas, 
 J. B. Foresman, and D. J. Fox, Gaussian, Inc., Wallingford CT, 2016.
 
 ******************************************
 Gaussian 16:  ES64L-G16RevB.01 20-Dec-2017
                19-Jan-2026 
 ******************************************
 %mem=60GB
 %chk=opt.chk
 %nprocshared=16
 Will use up to   16 processors via shared memory.
 ---------------------------
 #P b3lyp/6-31g* opt SCF=XQC
 ---------------------------
 1/18=20,19=15,26=3,38=1/1,3;
 2/9=110,12=2,17=6,18=5,40=1/2;
 3/5=1,6=6,7=1,11=2,25=1,30=1,71=1,74=-5/1,2,3;
 4//1;
 5/5=2,8=3,13=1,38=5/2,8;
 6/7=2,8=2,9=2,10=2,28=1/1;
 7//1,2,3,16;
 1/18=20,19=15,26=3/3(2);
 2/9=110/2;
 99//99;
 2/9=110/2;
 3/5=1,6=6,7=1,11=2,25=1,30=1,71=1,74=-5/1,2,3;
 4/5=5,16=3,69=1/1;
 5/5=2,8=3,13=1,38=5/2,8;
 7//1,2,3,16;
 1/18=20,19=15,26=3/3(-5);
 2/9=110/2;
 6/7=2,8=2,9=2,10=2,19=2,28=1/1;
 99/9=1/99;
 Leave Link    1 at Mon Jan 19 14:08:37 2026, MaxMem=  8053063680 cpu:               1.3 elap:               0.1
 (Enter /appl/Gaussian16/AVX_revB01/g16/l101.exe)
 ------------------------------
 Gaussian input prepared by ASE
 ------------------------------
 Symbolic Z-matrix:
 Charge =  0 Multiplicity = 1
 C                     6.08741   1.19575  -0.98365 
 C                     6.10758  -0.05069  -0.37813 
 C                     4.92626  -0.66102  -0.00535 
 C                     3.70528  -0.0274   -0.23562 
 C                     2.4545   -0.63983   0.14264 
 N                     1.29585  -0.10968  -0.04125 
 C                     0.28531  -0.88975   0.40323 
 C                     0.68413  -2.10415   0.9689 
 C                    -0.24259  -3.02912   1.47855 
 C                    -1.56743  -2.72511   1.41539 
 C                    -2.03532  -1.5038    0.85079 
 C                    -3.39041  -1.20044   0.78988 
 C                    -3.84966  -0.00478   0.23721 
 C                    -5.22956   0.31145   0.17163 
 C                    -5.65228   1.486    -0.3731 
 C                    -4.72043   2.4127   -0.88392 
 C                    -3.38557   2.14484  -0.839 
 C                    -2.90582   0.93475  -0.28062 
 C                    -1.54461   0.63386  -0.22131 
 C                    -1.09857  -0.55659   0.32967 
 S                     2.40864  -2.23469   0.92201 
 C                     3.69268   1.22937  -0.84665 
 C                     4.87765   1.83234  -1.21608 
 H                     7.01317   1.67007  -1.27385 
 H                     7.04878  -0.54811  -0.19625 
 H                     4.94167  -1.63306   0.46688 
 H                     0.10605  -3.95584   1.90737 
 H                    -2.30036  -3.41912   1.80019 
 H                    -4.10834  -1.90861   1.18061 
 H                    -5.93968  -0.40239   0.56462 
 H                    -6.70597   1.71969  -0.41939 
 H                    -5.07926   3.3377   -1.31126 
 H                    -2.66602   2.8506   -1.22867 
 H                    -0.81726   1.33188  -0.60771 
 H                     2.74262   1.70945  -1.01952 
 H                     4.86157   2.80373  -1.68796 
 
 ITRead=  0  0  0  0  0  0  0  0  0  0  0  0  0  0  0  0  0  0  0  0
 ITRead=  0  0  0  0  0  0  0  0  0  0  0  0  0  0  0  0
 MicOpt= -1 -1 -1 -1 -1 -1 -1 -1 -1 -1 -1 -1 -1 -1 -1 -1 -1 -1 -1 -1
 MicOpt= -1 -1 -1 -1 -1 -1 -1 -1 -1 -1 -1 -1 -1 -1 -1 -1
 NAtoms=     36 NQM=       36 NQMF=       0 NMMI=      0 NMMIF=      0
                NMic=       0 NMicF=      0.
                    Isotopes and Nuclear Properties:
 (Nuclear quadrupole moments (NQMom) in fm**2, nuclear magnetic moments (NMagM)
  in nuclear magnetons)

  Atom         1           2           3           4           5           6           7           8           9          10
 IAtWgt=          12          12          12          12          12          14          12          12          12          12
 AtmWgt=  12.0000000  12.0000000  12.0000000  12.0000000  12.0000000  14.0030740  12.0000000  12.0000000  12.0000000  12.0000000
 NucSpn=           0           0           0           0           0           2           0           0           0           0
 AtZEff=  -0.0000000  -0.0000000  -0.0000000  -0.0000000  -0.0000000  -0.0000000  -0.0000000  -0.0000000  -0.0000000  -0.0000000
 NQMom=    0.0000000   0.0000000   0.0000000   0.0000000   0.0000000   2.0440000   0.0000000   0.0000000   0.0000000   0.0000000
 NMagM=    0.0000000   0.0000000   0.0000000   0.0000000   0.0000000   0.4037610   0.0000000   0.0000000   0.0000000   0.0000000
 AtZNuc=   6.0000000   6.0000000   6.0000000   6.0000000   6.0000000   7.0000000   6.0000000   6.0000000   6.0000000   6.0000000

  Atom        11          12          13          14          15          16          17          18          19          20
 IAtWgt=          12          12          12          12          12          12          12          12          12          12
 AtmWgt=  12.0000000  12.0000000  12.0000000  12.0000000  12.0000000  12.0000000  12.0000000  12.0000000  12.0000000  12.0000000
 NucSpn=           0           0           0           0           0           0           0           0           0           0
 AtZEff=  -0.0000000  -0.0000000  -0.0000000  -0.0000000  -0.0000000  -0.0000000  -0.0000000  -0.0000000  -0.0000000  -0.0000000
 NQMom=    0.0000000   0.0000000   0.0000000   0.0000000   0.0000000   0.0000000   0.0000000   0.0000000   0.0000000   0.0000000
 NMagM=    0.0000000   0.0000000   0.0000000   0.0000000   0.0000000   0.0000000   0.0000000   0.0000000   0.0000000   0.0000000
 AtZNuc=   6.0000000   6.0000000   6.0000000   6.0000000   6.0000000   6.0000000   6.0000000   6.0000000   6.0000000   6.0000000

  Atom        21          22          23          24          25          26          27          28          29          30
 IAtWgt=          32          12          12           1           1           1           1           1           1           1
 AtmWgt=  31.9720718  12.0000000  12.0000000   1.0078250   1.0078250   1.0078250   1.0078250   1.0078250   1.0078250   1.0078250
 NucSpn=           0           0           0           1           1           1           1           1           1           1
 AtZEff=  -0.0000000  -0.0000000  -0.0000000  -0.0000000  -0.0000000  -0.0000000  -0.0000000  -0.0000000  -0.0000000  -0.0000000
 NQMom=    0.0000000   0.0000000   0.0000000   0.0000000   0.0000000   0.0000000   0.0000000   0.0000000   0.0000000   0.0000000
 NMagM=    0.0000000   0.0000000   0.0000000   2.7928460   2.7928460   2.7928460   2.7928460   2.7928460   2.7928460   2.7928460
 AtZNuc=  16.0000000   6.0000000   6.0000000   1.0000000   1.0000000   1.0000000   1.0000000   1.0000000   1.0000000   1.0000000

  Atom        31          32          33          34          35          36
 IAtWgt=           1           1           1           1           1           1
 AtmWgt=   1.0078250   1.0078250   1.0078250   1.0078250   1.0078250   1.0078250
 NucSpn=           1           1           1           1           1           1
 AtZEff=  -0.0000000  -0.0000000  -0.0000000  -0.0000000  -0.0000000  -0.0000000
 NQMom=    0.0000000   0.0000000   0.0000000   0.0000000   0.0000000   0.0000000
 NMagM=    2.7928460   2.7928460   2.7928460   2.7928460   2.7928460   2.7928460
 AtZNuc=   1.0000000   1.0000000   1.0000000   1.0000000   1.0000000   1.0000000
 Leave Link  101 at Mon Jan 19 14:08:38 2026, MaxMem=  8053063680 cpu:              10.3 elap:               0.7
 (Enter /appl/Gaussian16/AVX_revB01/g16/l103.exe)

 GradGradGradGradGradGradGradGradGradGradGradGradGradGradGradGradGradGrad
 Berny optimization.
 Initialization pass.
                           ----------------------------
                           !    Initial Parameters    !
                           ! (Angstroms and Degrees)  !
 --------------------------                            --------------------------
 ! Name  Definition              Value          Derivative Info.                !
 --------------------------------------------------------------------------------
 ! R1    R(1,2)                  1.3859         estimate D2E/DX2                !
 ! R2    R(1,23)                 1.3867         estimate D2E/DX2                !
 ! R3    R(1,24)                 1.0799         estimate D2E/DX2                !
 ! R4    R(2,3)                  1.3809         estimate D2E/DX2                !
 ! R5    R(2,25)                 1.08           estimate D2E/DX2                !
 ! R6    R(3,4)                  1.3947         estimate D2E/DX2                !
 ! R7    R(3,26)                 1.0808         estimate D2E/DX2                !
 ! R8    R(4,5)                  1.4431         estimate D2E/DX2                !
 ! R9    R(4,22)                 1.3975         estimate D2E/DX2                !
 ! R10   R(5,6)                  1.2874         estimate D2E/DX2                !
 ! R11   R(5,21)                 1.7757         estimate D2E/DX2                !
 ! R12   R(6,7)                  1.3518         estimate D2E/DX2                !
 ! R13   R(7,8)                  1.3978         estimate D2E/DX2                !
 ! R14   R(7,20)                 1.4253         estimate D2E/DX2                !
 ! R15   R(8,9)                  1.405          estimate D2E/DX2                !
 ! R16   R(8,21)                 1.7301         estimate D2E/DX2                !
 ! R17   R(9,10)                 1.3607         estimate D2E/DX2                !
 ! R18   R(9,27)                 1.079          estimate D2E/DX2                !
 ! R19   R(10,11)                1.4245         estimate D2E/DX2                !
 ! R20   R(10,28)                1.0802         estimate D2E/DX2                !
 ! R21   R(11,12)                1.39           estimate D2E/DX2                !
 ! R22   R(11,20)                1.4305         estimate D2E/DX2                !
 ! R23   R(12,13)                1.395          estimate D2E/DX2                !
 ! R24   R(12,29)                1.0815         estimate D2E/DX2                !
 ! R25   R(13,14)                1.4172         estimate D2E/DX2                !
 ! R26   R(13,18)                1.4289         estimate D2E/DX2                !
 ! R27   R(14,15)                1.362          estimate D2E/DX2                !
 ! R28   R(14,30)                1.0809         estimate D2E/DX2                !
 ! R29   R(15,16)                1.41           estimate D2E/DX2                !
 ! R30   R(15,31)                1.0803         estimate D2E/DX2                !
 ! R31   R(16,17)                1.3622         estimate D2E/DX2                !
 ! R32   R(16,32)                1.0803         estimate D2E/DX2                !
 ! R33   R(17,18)                1.4164         estimate D2E/DX2                !
 ! R34   R(17,33)                1.0806         estimate D2E/DX2                !
 ! R35   R(18,19)                1.3953         estimate D2E/DX2                !
 ! R36   R(19,20)                1.3855         estimate D2E/DX2                !
 ! R37   R(19,34)                1.0796         estimate D2E/DX2                !
 ! R38   R(22,23)                1.3799         estimate D2E/DX2                !
 ! R39   R(22,35)                1.0784         estimate D2E/DX2                !
 ! R40   R(23,36)                1.0801         estimate D2E/DX2                !
 ! A1    A(2,1,23)             119.9224         estimate D2E/DX2                !
 ! A2    A(2,1,24)             119.9976         estimate D2E/DX2                !
 ! A3    A(23,1,24)            120.08           estimate D2E/DX2                !
 ! A4    A(1,2,3)              120.1985         estimate D2E/DX2                !
 ! A5    A(1,2,25)             120.0329         estimate D2E/DX2                !
 ! A6    A(3,2,25)             119.7686         estimate D2E/DX2                !
 ! A7    A(2,3,4)              120.2336         estimate D2E/DX2                !
 ! A8    A(2,3,26)             120.2151         estimate D2E/DX2                !
 ! A9    A(4,3,26)             119.5514         estimate D2E/DX2                !
 ! A10   A(3,4,5)              121.512          estimate D2E/DX2                !
 ! A11   A(3,4,22)             119.2502         estimate D2E/DX2                !
 ! A12   A(5,4,22)             119.2377         estimate D2E/DX2                !
 ! A13   A(4,5,6)              124.6007         estimate D2E/DX2                !
 ! A14   A(4,5,21)             121.2373         estimate D2E/DX2                !
 ! A15   A(6,5,21)             114.162          estimate D2E/DX2                !
 ! A16   A(5,6,7)              112.8431         estimate D2E/DX2                !
 ! A17   A(6,7,8)              114.9064         estimate D2E/DX2                !
 ! A18   A(6,7,20)             125.0279         estimate D2E/DX2                !
 ! A19   A(8,7,20)             120.0657         estimate D2E/DX2                !
 ! A20   A(7,8,9)              122.0434         estimate D2E/DX2                !
 ! A21   A(7,8,21)             109.8155         estimate D2E/DX2                !
 ! A22   A(9,8,21)             128.1412         estimate D2E/DX2                !
 ! A23   A(8,9,10)             118.5712         estimate D2E/DX2                !
 ! A24   A(8,9,27)             119.7662         estimate D2E/DX2                !
 ! A25   A(10,9,27)            121.6627         estimate D2E/DX2                !
 ! A26   A(9,10,11)            121.9872         estimate D2E/DX2                !
 ! A27   A(9,10,28)            120.0348         estimate D2E/DX2                !
 ! A28   A(11,10,28)           117.9781         estimate D2E/DX2                !
 ! A29   A(10,11,12)           121.6478         estimate D2E/DX2                !
 ! A30   A(10,11,20)           119.8014         estimate D2E/DX2                !
 ! A31   A(12,11,20)           118.5509         estimate D2E/DX2                !
 ! A32   A(11,12,13)           121.6941         estimate D2E/DX2                !
 ! A33   A(11,12,29)           119.2383         estimate D2E/DX2                !
 ! A34   A(13,12,29)           119.0676         estimate D2E/DX2                !
 ! A35   A(12,13,14)           122.0151         estimate D2E/DX2                !
 ! A36   A(12,13,18)           119.3205         estimate D2E/DX2                !
 ! A37   A(14,13,18)           118.6644         estimate D2E/DX2                !
 ! A38   A(13,14,15)           120.8731         estimate D2E/DX2                !
 ! A39   A(13,14,30)           118.3924         estimate D2E/DX2                !
 ! A40   A(15,14,30)           120.7345         estimate D2E/DX2                !
 ! A41   A(14,15,16)           120.4359         estimate D2E/DX2                !
 ! A42   A(14,15,31)           120.4253         estimate D2E/DX2                !
 ! A43   A(16,15,31)           119.1388         estimate D2E/DX2                !
 ! A44   A(15,16,17)           120.4272         estimate D2E/DX2                !
 ! A45   A(15,16,32)           119.1146         estimate D2E/DX2                !
 ! A46   A(17,16,32)           120.4582         estimate D2E/DX2                !
 ! A47   A(16,17,18)           120.8567         estimate D2E/DX2                !
 ! A48   A(16,17,33)           120.8102         estimate D2E/DX2                !
 ! A49   A(18,17,33)           118.333          estimate D2E/DX2                !
 ! A50   A(13,18,17)           118.7426         estimate D2E/DX2                !
 ! A51   A(13,18,19)           119.1567         estimate D2E/DX2                !
 ! A52   A(17,18,19)           122.1007         estimate D2E/DX2                !
 ! A53   A(18,19,20)           121.0802         estimate D2E/DX2                !
 ! A54   A(18,19,34)           120.1723         estimate D2E/DX2                !
 ! A55   A(20,19,34)           118.7475         estimate D2E/DX2                !
 ! A56   A(7,20,11)            117.5312         estimate D2E/DX2                !
 ! A57   A(7,20,19)            122.2712         estimate D2E/DX2                !
 ! A58   A(11,20,19)           120.1976         estimate D2E/DX2                !
 ! A59   A(5,21,8)              88.2731         estimate D2E/DX2                !
 ! A60   A(4,22,23)            120.1504         estimate D2E/DX2                !
 ! A61   A(4,22,35)            118.5791         estimate D2E/DX2                !
 ! A62   A(23,22,35)           121.2705         estimate D2E/DX2                !
 ! A63   A(1,23,22)            120.245          estimate D2E/DX2                !
 ! A64   A(1,23,36)            119.9417         estimate D2E/DX2                !
 ! A65   A(22,23,36)           119.8133         estimate D2E/DX2                !
 ! D1    D(23,1,2,3)             0.0            estimate D2E/DX2                !
 ! D2    D(23,1,2,25)         -180.0            estimate D2E/DX2                !
 ! D3    D(24,1,2,3)          -180.0            estimate D2E/DX2                !
 ! D4    D(24,1,2,25)            0.0            estimate D2E/DX2                !
 ! D5    D(2,1,23,22)            0.0            estimate D2E/DX2                !
 ! D6    D(2,1,23,36)          180.0            estimate D2E/DX2                !
 ! D7    D(24,1,23,22)         180.0            estimate D2E/DX2                !
 ! D8    D(24,1,23,36)           0.0            estimate D2E/DX2                !
 ! D9    D(1,2,3,4)              0.0            estimate D2E/DX2                !
 ! D10   D(1,2,3,26)           180.0            estimate D2E/DX2                !
 ! D11   D(25,2,3,4)          -180.0            estimate D2E/DX2                !
 ! D12   D(25,2,3,26)            0.0            estimate D2E/DX2                !
 ! D13   D(2,3,4,5)           -180.0            estimate D2E/DX2                !
 ! D14   D(2,3,4,22)             0.0            estimate D2E/DX2                !
 ! D15   D(26,3,4,5)             0.0            estimate D2E/DX2                !
 ! D16   D(26,3,4,22)          180.0            estimate D2E/DX2                !
 ! D17   D(3,4,5,6)            179.9999         estimate D2E/DX2                !
 ! D18   D(3,4,5,21)             0.0002         estimate D2E/DX2                !
 ! D19   D(22,4,5,6)            -0.0001         estimate D2E/DX2                !
 ! D20   D(22,4,5,21)         -179.9998         estimate D2E/DX2                !
 ! D21   D(3,4,22,23)            0.0            estimate D2E/DX2                !
 ! D22   D(3,4,22,35)         -180.0            estimate D2E/DX2                !
 ! D23   D(5,4,22,23)          180.0            estimate D2E/DX2                !
 ! D24   D(5,4,22,35)            0.0            estimate D2E/DX2                !
 ! D25   D(4,5,6,7)            179.9998         estimate D2E/DX2                !
 ! D26   D(21,5,6,7)            -0.0005         estimate D2E/DX2                !
 ! D27   D(4,5,21,8)          -179.9997         estimate D2E/DX2                !
 ! D28   D(6,5,21,8)             0.0006         estimate D2E/DX2                !
 ! D29   D(5,6,7,8)              0.0001         estimate D2E/DX2                !
 ! D30   D(5,6,7,20)          -179.9998         estimate D2E/DX2                !
 ! D31   D(6,7,8,9)           -179.9999         estimate D2E/DX2                !
 ! D32   D(6,7,8,21)             0.0003         estimate D2E/DX2                !
 ! D33   D(20,7,8,9)             0.0            estimate D2E/DX2                !
 ! D34   D(20,7,8,21)         -179.9998         estimate D2E/DX2                !
 ! D35   D(6,7,20,11)          179.9999         estimate D2E/DX2                !
 ! D36   D(6,7,20,19)           -0.0001         estimate D2E/DX2                !
 ! D37   D(8,7,20,11)            0.0            estimate D2E/DX2                !
 ! D38   D(8,7,20,19)          180.0            estimate D2E/DX2                !
 ! D39   D(7,8,9,10)             0.0            estimate D2E/DX2                !
 ! D40   D(7,8,9,27)          -179.9999         estimate D2E/DX2                !
 ! D41   D(21,8,9,10)          179.9998         estimate D2E/DX2                !
 ! D42   D(21,8,9,27)           -0.0001         estimate D2E/DX2                !
 ! D43   D(7,8,21,5)            -0.0005         estimate D2E/DX2                !
 ! D44   D(9,8,21,5)           179.9997         estimate D2E/DX2                !
 ! D45   D(8,9,10,11)            0.0            estimate D2E/DX2                !
 ! D46   D(8,9,10,28)         -180.0            estimate D2E/DX2                !
 ! D47   D(27,9,10,11)         179.9999         estimate D2E/DX2                !
 ! D48   D(27,9,10,28)           0.0            estimate D2E/DX2                !
 ! D49   D(9,10,11,12)        -180.0            estimate D2E/DX2                !
 ! D50   D(9,10,11,20)           0.0            estimate D2E/DX2                !
 ! D51   D(28,10,11,12)          0.0            estimate D2E/DX2                !
 ! D52   D(28,10,11,20)        180.0            estimate D2E/DX2                !
 ! D53   D(10,11,12,13)       -180.0            estimate D2E/DX2                !
 ! D54   D(10,11,12,29)          0.0            estimate D2E/DX2                !
 ! D55   D(20,11,12,13)          0.0            estimate D2E/DX2                !
 ! D56   D(20,11,12,29)        180.0            estimate D2E/DX2                !
 ! D57   D(10,11,20,7)           0.0            estimate D2E/DX2                !
 ! D58   D(10,11,20,19)        180.0            estimate D2E/DX2                !
 ! D59   D(12,11,20,7)        -180.0            estimate D2E/DX2                !
 ! D60   D(12,11,20,19)          0.0            estimate D2E/DX2                !
 ! D61   D(11,12,13,14)        180.0            estimate D2E/DX2                !
 ! D62   D(11,12,13,18)          0.0            estimate D2E/DX2                !
 ! D63   D(29,12,13,14)          0.0            estimate D2E/DX2                !
 ! D64   D(29,12,13,18)       -180.0            estimate D2E/DX2                !
 ! D65   D(12,13,14,15)       -180.0            estimate D2E/DX2                !
 ! D66   D(12,13,14,30)          0.0            estimate D2E/DX2                !
 ! D67   D(18,13,14,15)          0.0            estimate D2E/DX2                !
 ! D68   D(18,13,14,30)        180.0            estimate D2E/DX2                !
 ! D69   D(12,13,18,17)        180.0            estimate D2E/DX2                !
 ! D70   D(12,13,18,19)          0.0            estimate D2E/DX2                !
 ! D71   D(14,13,18,17)          0.0            estimate D2E/DX2                !
 ! D72   D(14,13,18,19)       -180.0            estimate D2E/DX2                !
 ! D73   D(13,14,15,16)          0.0            estimate D2E/DX2                !
 ! D74   D(13,14,15,31)        180.0            estimate D2E/DX2                !
 ! D75   D(30,14,15,16)        180.0            estimate D2E/DX2                !
 ! D76   D(30,14,15,31)          0.0            estimate D2E/DX2                !
 ! D77   D(14,15,16,17)          0.0            estimate D2E/DX2                !
 ! D78   D(14,15,16,32)       -180.0            estimate D2E/DX2                !
 ! D79   D(31,15,16,17)        180.0            estimate D2E/DX2                !
 ! D80   D(31,15,16,32)          0.0            estimate D2E/DX2                !
 ! D81   D(15,16,17,18)          0.0            estimate D2E/DX2                !
 ! D82   D(15,16,17,33)       -180.0            estimate D2E/DX2                !
 ! D83   D(32,16,17,18)       -180.0            estimate D2E/DX2                !
 ! D84   D(32,16,17,33)          0.0            estimate D2E/DX2                !
 ! D85   D(16,17,18,13)          0.0            estimate D2E/DX2                !
 ! D86   D(16,17,18,19)        180.0            estimate D2E/DX2                !
 ! D87   D(33,17,18,13)        180.0            estimate D2E/DX2                !
 ! D88   D(33,17,18,19)          0.0            estimate D2E/DX2                !
 ! D89   D(13,18,19,20)          0.0            estimate D2E/DX2                !
 ! D90   D(13,18,19,34)        180.0            estimate D2E/DX2                !
 ! D91   D(17,18,19,20)        180.0            estimate D2E/DX2                !
 ! D92   D(17,18,19,34)          0.0            estimate D2E/DX2                !
 ! D93   D(18,19,20,7)         180.0            estimate D2E/DX2                !
 ! D94   D(18,19,20,11)          0.0            estimate D2E/DX2                !
 ! D95   D(34,19,20,7)           0.0            estimate D2E/DX2                !
 ! D96   D(34,19,20,11)       -180.0            estimate D2E/DX2                !
 ! D97   D(4,22,23,1)            0.0            estimate D2E/DX2                !
 ! D98   D(4,22,23,36)         180.0            estimate D2E/DX2                !
 ! D99   D(35,22,23,1)         180.0            estimate D2E/DX2                !
 ! D100  D(35,22,23,36)          0.0            estimate D2E/DX2                !
 --------------------------------------------------------------------------------
 Trust Radius=3.00D-01 FncErr=1.00D-07 GrdErr=1.00D-06 EigMax=2.50D+02 EigMin=1.00D-04
 Number of steps in this run=    215 maximum allowed number of steps=    216.
 GradGradGradGradGradGradGradGradGradGradGradGradGradGradGradGradGradGrad

 Leave Link  103 at Mon Jan 19 14:08:39 2026, MaxMem=  8053063680 cpu:               0.2 elap:               0.1
 (Enter /appl/Gaussian16/AVX_revB01/g16/l202.exe)
                          Input orientation:                          
 ---------------------------------------------------------------------
 Center     Atomic      Atomic             Coordinates (Angstroms)
 Number     Number       Type             X           Y           Z
 ---------------------------------------------------------------------
      1          6           0        6.087412    1.195749   -0.983650
      2          6           0        6.107577   -0.050689   -0.378134
      3          6           0        4.926259   -0.661016   -0.005350
      4          6           0        3.705283   -0.027400   -0.235618
      5          6           0        2.454500   -0.639830    0.142640
      6          7           0        1.295849   -0.109681   -0.041246
      7          6           0        0.285312   -0.889754    0.403234
      8          6           0        0.684128   -2.104151    0.968896
      9          6           0       -0.242589   -3.029125    1.478546
     10          6           0       -1.567430   -2.725112    1.415388
     11          6           0       -2.035324   -1.503804    0.850786
     12          6           0       -3.390405   -1.200443    0.789881
     13          6           0       -3.849659   -0.004775    0.237208
     14          6           0       -5.229565    0.311453    0.171629
     15          6           0       -5.652278    1.485999   -0.373102
     16          6           0       -4.720432    2.412696   -0.883920
     17          6           0       -3.385572    2.144839   -0.839005
     18          6           0       -2.905819    0.934750   -0.280623
     19          6           0       -1.544612    0.633859   -0.221314
     20          6           0       -1.098571   -0.556592    0.329666
     21         16           0        2.408645   -2.234694    0.922015
     22          6           0        3.692684    1.229375   -0.846650
     23          6           0        4.877649    1.832341   -1.216085
     24          1           0        7.013168    1.670068   -1.273854
     25          1           0        7.048784   -0.548108   -0.196253
     26          1           0        4.941672   -1.633055    0.466884
     27          1           0        0.106046   -3.955837    1.907370
     28          1           0       -2.300363   -3.419116    1.800186
     29          1           0       -4.108337   -1.908606    1.180611
     30          1           0       -5.939681   -0.402390    0.564624
     31          1           0       -6.705973    1.719687   -0.419388
     32          1           0       -5.079264    3.337695   -1.311255
     33          1           0       -2.666022    2.850601   -1.228670
     34          1           0       -0.817259    1.331882   -0.607711
     35          1           0        2.742618    1.709453   -1.019521
     36          1           0        4.861570    2.803735   -1.687961
 ---------------------------------------------------------------------
                    Distance matrix (angstroms):
                    1          2          3          4          5
     1  C    0.000000
     2  C    1.385880   0.000000
     3  C    2.398525   1.380934   0.000000
     4  C    2.780321   2.406631   1.394731   0.000000
     5  C    4.223260   3.736745   2.476275   1.443124   0.000000
     6  N    5.054834   4.823867   3.672211   2.418661   1.287379
     7  C    6.319583   5.934082   4.664510   3.584409   2.199034
     8  C    6.625500   5.953569   4.585571   3.858902   2.441547
     9  C    7.998805   7.255546   5.875957   5.247323   3.842872
    10  C    8.928893   8.323159   6.960386   6.148574   4.705763
    11  C    8.753947   8.362334   7.064481   6.026160   4.626710
    12  C    9.935601   9.638353   8.371993   7.264741   5.907294
    13  C   10.083508   9.976337   8.803762   7.569757   6.336771
    14  C   11.410110  11.356239  10.203811   8.950540   7.742780
    15  C   11.759138  11.859832  10.800479   9.480148   8.396725
    16  C   10.876599  11.116199  10.162590   8.795854   7.864566
    17  C    9.521508   9.754620   8.812169   7.440626   6.544039
    18  C    9.024443   9.067629   7.997730   6.680899   5.602809
    19  C    7.690558   7.684348   6.602690   5.291395   4.212796
    20  C    7.512247   7.258477   6.035040   4.865861   3.558964
    21  S    5.378924   4.488024   3.110442   2.809542   1.775702
    22  C    2.398879   2.773045   2.408956   1.397499   2.450658
    23  C    1.386652   2.400143   2.772196   2.407155   3.718792
    24  H    1.079917   2.140891   3.376129   3.860238   5.303163
    25  H    2.141323   1.079989   2.134082   3.384034   4.607679
    26  H    3.379186   2.139456   1.080788   2.144830   2.697713
    27  H    8.406757   7.516121   6.144005   5.742779   4.430058
    28  H    9.970030   9.315838   7.942993   7.191385   5.751575
    29  H   10.875401  10.499830   9.197114   8.160716   6.764467
    30  H   12.231196  12.089206  10.883951   9.685366   8.408134
    31  H   12.816537  12.935339  11.880572  10.558425   9.476153
    32  H   11.374969  11.725923  10.853827   9.468322   8.642461
    33  H    8.911856   9.279921   8.454034   7.061343   6.346916
    34  H    6.916238   7.065236   6.109213   4.737034   3.892953
    35  H    3.384203   3.851289   3.378750   2.134921   2.636809
    36  H    2.141112   3.378745   3.852254   3.385502   4.582927
                    6          7          8          9         10
     6  N    0.000000
     7  C    1.351762   0.000000
     8  C    2.317865   1.397780   0.000000
     9  C    3.633140   2.451914   1.405035   0.000000
    10  C    4.142539   2.797436   2.377911   1.360741   0.000000
    11  C    3.719680   2.441867   2.787434   2.436100   1.424533
    12  C    4.882777   3.709032   4.177386   3.705008   2.457461
    13  C    5.154105   4.231871   5.049552   4.868117   3.741245
    14  C    6.542453   5.648929   6.437588   6.143079   4.917204
    15  C    7.136721   6.442194   7.405416   7.285580   6.133363
    16  C    6.577852   6.133548   7.283139   7.432748   6.451768
    17  C    5.256899   4.922123   6.155070   6.482228   5.666070
    18  C    4.336145   3.738955   4.866615   5.089182   4.249980
    19  C    2.941683   2.461722   3.725666   4.242904   3.736576
    20  C    2.463849   1.425321   2.445725   2.857630   2.470040
    21  S    2.584930   2.566426   1.730086   2.823099   4.036471
    22  C    2.861217   4.202749   4.843554   6.247218   6.958705
    23  C    4.240399   5.578670   6.152701   7.557230   8.320701
    24  H    6.113474   7.391168   7.702688   9.072162  10.008811
    25  H    5.771698   6.798578   6.654899   7.881910   9.031936
    26  H    3.983828   4.715744   4.312844   5.463427   6.667882
    27  H    4.472768   3.419858   2.154914   1.078996   2.134772
    28  H    5.222641   3.877482   3.365615   2.118958   1.080233
    29  H    5.825315   4.576737   4.801123   4.035881   2.679181
    30  H    7.266750   6.246127   6.850859   6.339704   5.023487
    31  H    8.216979   7.507593   8.435797   8.241887   7.037562
    32  H    7.357948   7.041979   8.247998   8.468342   7.518324
    33  H    5.086223   5.036242   6.371999   6.911817   6.267896
    34  H    2.619965   2.678309   4.067699   4.868377   4.595093
    35  H    2.521787   3.849475   4.768098   6.132366   6.646101
    36  H    4.890197   6.241562   6.971173   8.372661   9.029449
                   11         12         13         14         15
    11  C    0.000000
    12  C    1.389957   0.000000
    13  C    2.432155   1.394985   0.000000
    14  C    3.736253   2.459791   1.417195   0.000000
    15  C    4.849658   3.699401   2.417503   1.361975   0.000000
    16  C    5.055491   4.198257   2.803452   2.405955   1.409978
    17  C    4.241599   3.720780   2.448357   2.789802   2.406053
    18  C    2.825667   2.437182   1.428877   2.448025   2.802760
    19  C    2.441270   2.791797   2.435433   3.719842   4.197868
    20  C    1.430484   2.424633   2.807407   4.224167   5.040070
    21  S    4.504235   5.892038   6.678912   8.086296   8.972143
    22  C    6.569752   7.665012   7.719120   9.026960   9.360471
    23  C    7.949278   9.032298   9.036203  10.314777  10.569292
    24  H    9.821546  10.987865  11.094567  12.402410  12.698770
    25  H    9.194056  10.505935  10.920584  12.313896  12.864130
    26  H    6.988745   8.349550   8.943799  10.359650  11.075461
    27  H    3.422616   4.589787   5.835061   7.049206   8.244539
    28  H    2.154072   2.670471   4.062135   5.014934   6.326031
    29  H    2.137763   1.081476   2.140443   2.684000   4.039941
    30  H    4.066817   2.680753   2.152554   1.080870   2.127896
    31  H    5.815428   4.580664   3.400503   2.124196   1.080290
    32  H    6.113928   5.278420   3.883526   3.373378   2.153429
    33  H    4.866494   4.583693   3.420960   3.870383   3.392913
    34  H    3.413504   3.871306   3.419939   4.595333   4.843160
    35  H    6.054073   7.025340   6.926475   8.181010   8.422711
    36  H    8.518643   9.500960   9.353048  10.559382  10.677372
                   16         17         18         19         20
    16  C    0.000000
    17  C    1.362211   0.000000
    18  C    2.416840   1.416428   0.000000
    19  C    3.699884   2.460434   1.395326   0.000000
    20  C    4.838114   3.727451   2.421301   1.385534   0.000000
    21  S    8.699619   7.473583   6.303589   5.016377   3.932870
    22  C    8.496009   7.137215   6.629286   5.308009   5.246859
    23  C    9.621347   8.277721   7.890699   6.608432   6.619030
    24  H   11.763543  10.418651   9.995674   8.684307   8.563271
    25  H   12.155398  10.795410  10.064795   8.674337   8.164316
    26  H   10.561678   9.236927   8.290688   6.905389   6.136949
    27  H    8.464302   7.546669   6.146258   5.321774   3.936384
    28  H    6.860845   6.253048   4.863383   4.591757   3.435226
    29  H    4.828105   4.586028   3.415542   3.873268   3.407454
    30  H    3.392573   3.870661   3.421506   4.583463   4.849260
    31  H    2.153700   3.373707   3.882854   5.278059   6.097991
    32  H    1.080277   2.124740   3.400031   4.581754   5.805516
    33  H    2.128666   1.080597   2.150995   2.680722   4.061315
    34  H    4.059459   2.703817   2.150995   1.079621   2.127004
    35  H    7.497336   6.146287   5.748997   4.491590   4.659399
    36  H    9.623625   8.316863   8.112092   6.920881   7.133435
                   21         22         23         24         25
    21  S    0.000000
    22  C    4.095938   0.000000
    23  C    5.216150   1.379924   0.000000
    24  H    6.424223   3.376733   2.142455   0.000000
    25  H    5.062211   3.853033   3.379411   2.466332   0.000000
    26  H    2.642980   3.388045   3.852980   4.269881   2.461053
    27  H    3.038950   6.880045   8.125711   9.459351   8.014952
    28  H    4.934450   8.033108   9.391462  11.049497   9.981734
    29  H    6.530257   8.649430  10.024309  11.938140  11.323783
    30  H    8.554508   9.871008  11.188367  13.245806  13.011548
    31  H   10.025605  10.418975  11.611534  13.745814  13.942239
    32  H    9.597280   9.033712  10.070514  12.206937  12.784062
    33  H    7.499194   6.573238   7.612094   9.751021  10.343817
    34  H    5.046482   4.517432   5.749136   7.865985   8.098043
    35  H    4.408786   1.078418   2.147580   4.278299   4.931269
    36  H    6.181794   2.133707   1.080061   2.466994   4.271293
                   26         27         28         29         30
    26  H    0.000000
    27  H    5.554601   0.000000
    28  H    7.577254   2.467866   0.000000
    29  H    9.082290   4.741346   2.436039   0.000000
    30  H   10.951161   7.140082   4.885887   2.449887   0.000000
    31  H   12.152942   9.166733   7.123427   4.740488   2.461441
    32  H   11.326487   9.510132   7.940898   5.888614   4.271706
    33  H    8.991945   7.990413   6.972591   5.525845   4.951231
    34  H    6.565889   5.927740   5.528973   4.952782   5.533648
    35  H    4.268208   6.900269   7.725582   8.053975   9.074783
    36  H    4.933039   9.012947  10.108627  10.530626  11.490012
                   31         32         33         34         35
    31  H    0.000000
    32  H    2.461617   0.000000
    33  H    4.272600   2.463295   0.000000
    34  H    5.904473   4.762662   2.471845   0.000000
    35  H    9.467636   7.994880   5.531667   3.603453   0.000000
    36  H   11.687279   9.962289   7.541736   5.965098   2.476737
                   36
    36  H    0.000000
 Stoichiometry    C21H13NS
 Framework group  C1[X(C21H13NS)]
 Deg. of freedom   102
 Full point group                 C1      NOp   1
 Largest Abelian subgroup         C1      NOp   1
 Largest concise Abelian subgroup C1      NOp   1
                         Standard orientation:                         
 ---------------------------------------------------------------------
 Center     Atomic      Atomic             Coordinates (Angstroms)
 Number     Number       Type             X           Y           Z
 ---------------------------------------------------------------------
      1          6           0        5.834000   -2.015551    0.000006
      2          6           0        5.911703   -0.631851    0.000004
      3          6           0        4.759000    0.128581    0.000002
      4          6           0        3.509223   -0.490558    0.000001
      5          6           0        2.287179    0.277045   -0.000002
      6          7           0        1.104481   -0.231453   -0.000006
      7          6           0        0.130333    0.705722   -0.000003
      8          6           0        0.585069    2.027465   -0.000001
      9          6           0       -0.298600    3.119826    0.000005
     10          6           0       -1.636986    2.874185    0.000007
     11          6           0       -2.161093    1.549570    0.000004
     12          6           0       -3.529677    1.306757    0.000006
     13          6           0       -4.043963    0.010032    0.000003
     14          6           0       -5.437957   -0.245352    0.000005
     15          6           0       -5.914741   -1.521148    0.000002
     16          6           0       -5.026025   -2.615781   -0.000003
     17          6           0       -3.679292   -2.411015   -0.000005
     18          6           0       -3.143849   -1.099691   -0.000002
     19          6           0       -1.769256   -0.860049   -0.000004
     20          6           0       -1.268418    0.431797   -0.000002
     21         16           0        2.314973    2.052529   -0.000010
     22          6           0        3.438607   -1.886272    0.000002
     23          6           0        4.595294   -2.638778    0.000005
     24          1           0        6.737514   -2.607059    0.000008
     25          1           0        6.875526   -0.144592    0.000005
     26          1           0        4.819285    1.207686    0.000001
     27          1           0        0.092691    4.125373    0.000005
     28          1           0       -2.337606    3.696398    0.000010
     29          1           0       -4.214648    2.143659    0.000010
     30          1           0       -6.114853    0.597318    0.000009
     31          1           0       -6.978835   -1.707510    0.000003
     32          1           0       -5.427429   -3.618714   -0.000005
     33          1           0       -2.992593   -3.245362   -0.000009
     34          1           0       -1.074399   -1.686339   -0.000008
     35          1           0        2.466727   -2.353644    0.000001
     36          1           0        4.534374   -3.717119    0.000006
 ---------------------------------------------------------------------
 Rotational constants (GHZ):           0.5382534           0.1250126           0.1014502
 Leave Link  202 at Mon Jan 19 14:08:39 2026, MaxMem=  8053063680 cpu:               0.0 elap:               0.1
 (Enter /appl/Gaussian16/AVX_revB01/g16/l301.exe)
 Standard basis: 6-31G(d) (6D, 7F)
 Ernie: Thresh=  0.10000D-02 Tol=  0.10000D-05 Strict=F.
 There are   375 symmetry adapted cartesian basis functions of A   symmetry.
 There are   375 symmetry adapted basis functions of A   symmetry.
   375 basis functions,   720 primitive gaussians,   375 cartesian basis functions
    81 alpha electrons       81 beta electrons
       nuclear repulsion energy      1781.7882545298 Hartrees.
 IExCor=  402 DFT=T Ex+Corr=B3LYP ExCW=0 ScaHFX=  0.200000
 ScaDFX=  0.800000  0.720000  1.000000  0.810000 ScalE2=  1.000000  1.000000
 IRadAn=      5 IRanWt=     -1 IRanGd=            0 ICorTp=0 IEmpDi=  4
 NAtoms=   36 NActive=   36 NUniq=   36 SFac= 1.00D+00 NAtFMM=   60 NAOKFM=F Big=F
 Integral buffers will be    131072 words long.
 Raffenetti 2 integral format.
 Two-electron integral symmetry is turned on.
 Leave Link  301 at Mon Jan 19 14:08:39 2026, MaxMem=  8053063680 cpu:               1.2 elap:               0.3
 (Enter /appl/Gaussian16/AVX_revB01/g16/l302.exe)
 NPDir=0 NMtPBC=     1 NCelOv=     1 NCel=       1 NClECP=     1 NCelD=      1
         NCelK=      1 NCelE2=     1 NClLst=     1 CellRange=     0.0.
 One-electron integrals computed using PRISM.
 One-electron integral symmetry used in STVInt
 NBasis=   375 RedAO= T EigKep=  1.95D-04  NBF=   375
 NBsUse=   375 1.00D-06 EigRej= -1.00D+00 NBFU=   375
 Precomputing XC quadrature grid using
 IXCGrd= 4 IRadAn=           5 IRanWt=          -1 IRanGd=           0 AccXCQ= 0.00D+00.
 Generated NRdTot=       0 NPtTot=           0 NUsed=           0 NTot=          32
 NSgBfM=   369   369   369   369   369 MxSgAt=    36 MxSgA2=    36.
 Leave Link  302 at Mon Jan 19 14:08:40 2026, MaxMem=  8053063680 cpu:               5.5 elap:               0.4
 (Enter /appl/Gaussian16/AVX_revB01/g16/l303.exe)
 DipDrv:  MaxL=1.
 Leave Link  303 at Mon Jan 19 14:08:40 2026, MaxMem=  8053063680 cpu:               0.7 elap:               0.1
 (Enter /appl/Gaussian16/AVX_revB01/g16/l401.exe)
 ExpMin= 1.17D-01 ExpMax= 2.19D+04 ExpMxC= 3.30D+03 IAcc=3 IRadAn=         5 AccDes= 0.00D+00
 Harris functional with IExCor=  402 and IRadAn=       5 diagonalized for initial guess.
 HarFok:  IExCor=  402 AccDes= 0.00D+00 IRadAn=         5 IDoV= 1 UseB2=F ITyADJ=14
 ICtDFT=  3500011 ScaDFX=  1.000000  1.000000  1.000000  1.000000
 FoFCou: FMM=F IPFlag=           0 FMFlag=      100000 FMFlg1=           0
         NFxFlg=           0 DoJE=T BraDBF=F KetDBF=T FulRan=T
         wScrn=  0.000000 ICntrl=       500 IOpCl=  0 I1Cent=   200000004 NGrid=           0
         NMat0=    1 NMatS0=      1 NMatT0=    0 NMatD0=    1 NMtDS0=    0 NMtDT0=    0
 Petite list used in FoFCou.
 Harris En= -1261.01448631765    
 JPrj=0 DoOrth=F DoCkMO=F.
 Leave Link  401 at Mon Jan 19 14:08:41 2026, MaxMem=  8053063680 cpu:              18.1 elap:               1.1
 (Enter /appl/Gaussian16/AVX_revB01/g16/l502.exe)
 Integral symmetry usage will be decided dynamically.
 Closed shell SCF:
 Using DIIS extrapolation, IDIIS=  1040.
 NGot=  8053063680 LenX=  8052772476 LenY=  8052631410
 Requested convergence on RMS density matrix=1.00D-08 within  32 cycles.
 Requested convergence on MAX density matrix=1.00D-06.
 Requested convergence on             energy=1.00D-06.
 No special actions if energy rises.
 Fock matrices will be formed incrementally for  20 cycles.
 Integral accuracy reduced to 1.0D-05 until final iterations.

 Cycle   1  Pass 0  IDiag  1:
 FoFJK:  IHMeth= 1 ICntrl=       0 DoSepK=F KAlg= 0 I1Cent=           0 FoldK=F
 IRaf= 700000000 NMat=       1 IRICut=       1 DoRegI=T DoRafI=F ISym2E= 0 IDoP0=0 IntGTp=1.
 FoFCou: FMM=F IPFlag=           0 FMFlag=      100000 FMFlg1=           0
         NFxFlg=           0 DoJE=F BraDBF=F KetDBF=F FulRan=T
         wScrn=  0.000000 ICntrl=         0 IOpCl=  0 I1Cent=           0 NGrid=           0
         NMat0=    1 NMatS0=      1 NMatT0=    0 NMatD0=    1 NMtDS0=    0 NMtDT0=    0
 Symmetry not used in FoFCou.
 E= -1260.49204196464    
 DIIS: error= 4.21D-02 at cycle   1 NSaved=   1.
 NSaved= 1 IEnMin= 1 EnMin= -1260.49204196464     IErMin= 1 ErrMin= 4.21D-02
 ErrMax= 4.21D-02  0.00D+00 EMaxC= 1.00D-01 BMatC= 4.93D-01 BMatP= 4.93D-01
 IDIUse=3 WtCom= 5.79D-01 WtEn= 4.21D-01
 Coeff-Com:  0.100D+01
 Coeff-En:   0.100D+01
 Coeff:      0.100D+01
 Gap=     0.272 Goal=   None    Shift=    0.000
 GapD=    0.272 DampG=1.000 DampE=0.500 DampFc=0.5000 IDamp=-1.
 Damping current iteration by 5.00D-01
 RMSDP=6.05D-03 MaxDP=2.92D-01              OVMax= 3.02D-01

 Cycle   2  Pass 0  IDiag  1:
 RMSU=  2.95D-03    CP:  9.65D-01
 E= -1260.66964651400     Delta-E=       -0.177604549368 Rises=F Damp=T
 DIIS: error= 1.75D-02 at cycle   2 NSaved=   2.
 NSaved= 2 IEnMin= 2 EnMin= -1260.66964651400     IErMin= 2 ErrMin= 1.75D-02
 ErrMax= 1.75D-02  0.00D+00 EMaxC= 1.00D-01 BMatC= 6.58D-02 BMatP= 4.93D-01
 IDIUse=3 WtCom= 8.25D-01 WtEn= 1.75D-01
 Coeff-Com:  0.145D+00 0.855D+00
 Coeff-En:   0.284D+00 0.716D+00
 Coeff:      0.169D+00 0.831D+00
 Gap=     0.213 Goal=   None    Shift=    0.000
 RMSDP=2.52D-03 MaxDP=1.23D-01 DE=-1.78D-01 OVMax= 2.95D-01

 Cycle   3  Pass 0  IDiag  1:
 RMSU=  2.28D-03    CP:  9.36D-01  6.88D-01
 E= -1260.94481012067     Delta-E=       -0.275163606663 Rises=F Damp=F
 DIIS: error= 1.75D-02 at cycle   3 NSaved=   3.
 NSaved= 3 IEnMin= 3 EnMin= -1260.94481012067     IErMin= 3 ErrMin= 1.75D-02
 ErrMax= 1.75D-02  0.00D+00 EMaxC= 1.00D-01 BMatC= 9.34D-02 BMatP= 6.58D-02
 IDIUse=2 WtCom= 0.00D+00 WtEn= 1.00D+00
 Coeff-En:   0.000D+00 0.000D+00 0.100D+01
 Coeff:      0.000D+00 0.000D+00 0.100D+01
 Gap=     0.118 Goal=   None    Shift=    0.000
 RMSDP=3.88D-03 MaxDP=1.89D-01 DE=-2.75D-01 OVMax= 3.34D-01

 Cycle   4  Pass 0  IDiag  1:
 RMSU=  2.19D-03    CP:  9.46D-01  1.34D+00 -1.22D-01
 E= -1260.34583453583     Delta-E=        0.598975584837 Rises=F Damp=F
 DIIS: error= 4.71D-02 at cycle   4 NSaved=   4.
 NSaved= 4 IEnMin= 3 EnMin= -1260.94481012067     IErMin= 3 ErrMin= 1.75D-02
 ErrMax= 4.71D-02  0.00D+00 EMaxC= 1.00D-01 BMatC= 6.75D-01 BMatP= 6.58D-02
 IDIUse=2 WtCom= 0.00D+00 WtEn= 1.00D+00
 Coeff-En:   0.000D+00 0.000D+00 0.821D+00 0.179D+00
 Coeff:      0.000D+00 0.000D+00 0.821D+00 0.179D+00
 Gap=     0.160 Goal=   None    Shift=    0.000
 RMSDP=2.30D-03 MaxDP=9.81D-02 DE= 5.99D-01 OVMax= 2.32D-01

 Cycle   5  Pass 0  IDiag  1:
 RMSU=  6.40D-04    CP:  9.44D-01  9.20D-01  4.83D-01  4.58D-01
 E= -1260.98621963854     Delta-E=       -0.640385102713 Rises=F Damp=F
 DIIS: error= 1.35D-02 at cycle   5 NSaved=   5.
 NSaved= 5 IEnMin= 5 EnMin= -1260.98621963854     IErMin= 5 ErrMin= 1.35D-02
 ErrMax= 1.35D-02  0.00D+00 EMaxC= 1.00D-01 BMatC= 5.64D-02 BMatP= 6.58D-02
 IDIUse=3 WtCom= 8.65D-01 WtEn= 1.35D-01
 Coeff-Com:  0.282D-02 0.297D-01 0.345D+00-0.868D-01 0.709D+00
 Coeff-En:   0.000D+00 0.000D+00 0.402D+00 0.000D+00 0.598D+00
 Coeff:      0.244D-02 0.257D-01 0.353D+00-0.751D-01 0.694D+00
 Gap=     0.122 Goal=   None    Shift=    0.000
 RMSDP=7.74D-04 MaxDP=3.97D-02 DE=-6.40D-01 OVMax= 6.62D-02

 Cycle   6  Pass 0  IDiag  1:
 RMSU=  1.53D-04    CP:  9.41D-01  8.08D-01  7.03D-01  2.61D-01  7.43D-01
 E= -1261.04381637838     Delta-E=       -0.057596739832 Rises=F Damp=F
 DIIS: error= 1.62D-03 at cycle   6 NSaved=   6.
 NSaved= 6 IEnMin= 6 EnMin= -1261.04381637838     IErMin= 6 ErrMin= 1.62D-03
 ErrMax= 1.62D-03  0.00D+00 EMaxC= 1.00D-01 BMatC= 6.16D-04 BMatP= 5.64D-02
 IDIUse=3 WtCom= 9.84D-01 WtEn= 1.62D-02
 Coeff-Com:  0.887D-03 0.118D-01 0.191D+00-0.590D-01 0.430D+00 0.425D+00
 Coeff-En:   0.000D+00 0.000D+00 0.000D+00 0.000D+00 0.000D+00 0.100D+01
 Coeff:      0.872D-03 0.116D-01 0.188D+00-0.580D-01 0.423D+00 0.434D+00
 Gap=     0.122 Goal=   None    Shift=    0.000
 RMSDP=1.03D-04 MaxDP=4.58D-03 DE=-5.76D-02 OVMax= 1.14D-02

 Cycle   7  Pass 0  IDiag  1:
 RMSU=  6.02D-05    CP:  9.41D-01  8.06D-01  7.04D-01  2.55D-01  7.79D-01
                    CP:  4.83D-01
 E= -1261.04444978283     Delta-E=       -0.000633404456 Rises=F Damp=F
 DIIS: error= 5.52D-04 at cycle   7 NSaved=   7.
 NSaved= 7 IEnMin= 7 EnMin= -1261.04444978283     IErMin= 7 ErrMin= 5.52D-04
 ErrMax= 5.52D-04  0.00D+00 EMaxC= 1.00D-01 BMatC= 7.48D-05 BMatP= 6.16D-04
 IDIUse=3 WtCom= 9.94D-01 WtEn= 5.52D-03
 Coeff-Com:  0.118D-02-0.350D-02 0.410D-01-0.114D-01 0.802D-01 0.232D+00
 Coeff-Com:  0.661D+00
 Coeff-En:   0.000D+00 0.000D+00 0.000D+00 0.000D+00 0.000D+00 0.932D-01
 Coeff-En:   0.907D+00
 Coeff:      0.118D-02-0.348D-02 0.408D-01-0.113D-01 0.797D-01 0.231D+00
 Coeff:      0.662D+00
 Gap=     0.122 Goal=   None    Shift=    0.000
 RMSDP=3.43D-05 MaxDP=1.72D-03 DE=-6.33D-04 OVMax= 4.17D-03

 Cycle   8  Pass 0  IDiag  1:
 RMSU=  1.92D-05    CP:  9.41D-01  8.03D-01  7.09D-01  2.54D-01  7.68D-01
                    CP:  5.80D-01  7.16D-01
 E= -1261.04452549776     Delta-E=       -0.000075714924 Rises=F Damp=F
 DIIS: error= 1.66D-04 at cycle   8 NSaved=   8.
 NSaved= 8 IEnMin= 8 EnMin= -1261.04452549776     IErMin= 8 ErrMin= 1.66D-04
 ErrMax= 1.66D-04  0.00D+00 EMaxC= 1.00D-01 BMatC= 1.16D-05 BMatP= 7.48D-05
 IDIUse=3 WtCom= 9.98D-01 WtEn= 1.66D-03
 Coeff-Com:  0.767D-03-0.302D-02 0.113D-01-0.254D-02 0.156D-01 0.108D+00
 Coeff-Com:  0.415D+00 0.455D+00
 Coeff-En:   0.000D+00 0.000D+00 0.000D+00 0.000D+00 0.000D+00 0.000D+00
 Coeff-En:   0.381D-01 0.962D+00
 Coeff:      0.766D-03-0.301D-02 0.113D-01-0.254D-02 0.156D-01 0.108D+00
 Coeff:      0.414D+00 0.456D+00
 Gap=     0.122 Goal=   None    Shift=    0.000
 RMSDP=1.25D-05 MaxDP=6.17D-04 DE=-7.57D-05 OVMax= 1.77D-03

 Cycle   9  Pass 0  IDiag  1:
 RMSU=  7.95D-06    CP:  9.41D-01  8.03D-01  7.11D-01  2.53D-01  7.68D-01
                    CP:  5.69D-01  7.77D-01  5.80D-01
 E= -1261.04453710891     Delta-E=       -0.000011611158 Rises=F Damp=F
 DIIS: error= 6.06D-05 at cycle   9 NSaved=   9.
 NSaved= 9 IEnMin= 9 EnMin= -1261.04453710891     IErMin= 9 ErrMin= 6.06D-05
 ErrMax= 6.06D-05  0.00D+00 EMaxC= 1.00D-01 BMatC= 7.71D-07 BMatP= 1.16D-05
 IDIUse=1 WtCom= 1.00D+00 WtEn= 0.00D+00
 Coeff-Com:  0.294D-03-0.111D-02 0.899D-03 0.740D-04-0.221D-02 0.295D-01
 Coeff-Com:  0.142D+00 0.254D+00 0.577D+00
 Coeff:      0.294D-03-0.111D-02 0.899D-03 0.740D-04-0.221D-02 0.295D-01
 Coeff:      0.142D+00 0.254D+00 0.577D+00
 Gap=     0.122 Goal=   None    Shift=    0.000
 RMSDP=4.17D-06 MaxDP=1.59D-04 DE=-1.16D-05 OVMax= 5.52D-04

 Initial convergence to 1.0D-05 achieved.  Increase integral accuracy.
 Cycle  10  Pass 1  IDiag  1:
 E= -1261.04454478014     Delta-E=       -0.000007671223 Rises=F Damp=F
 DIIS: error= 8.74D-05 at cycle   1 NSaved=   1.
 NSaved= 1 IEnMin= 1 EnMin= -1261.04454478014     IErMin= 1 ErrMin= 8.74D-05
 ErrMax= 8.74D-05  0.00D+00 EMaxC= 1.00D-01 BMatC= 1.46D-06 BMatP= 1.46D-06
 IDIUse=1 WtCom= 1.00D+00 WtEn= 0.00D+00
 Coeff-Com:  0.100D+01
 Coeff:      0.100D+01
 Gap=     0.122 Goal=   None    Shift=    0.000
 RMSDP=4.17D-06 MaxDP=1.59D-04 DE=-7.67D-06 OVMax= 4.59D-04

 Cycle  11  Pass 1  IDiag  1:
 RMSU=  6.08D-05    CP:  1.00D+00
 E= -1261.04454533487     Delta-E=       -0.000000554729 Rises=F Damp=F
 DIIS: error= 4.13D-05 at cycle   2 NSaved=   2.
 NSaved= 2 IEnMin= 2 EnMin= -1261.04454533487     IErMin= 2 ErrMin= 4.13D-05
 ErrMax= 4.13D-05  0.00D+00 EMaxC= 1.00D-01 BMatC= 6.29D-07 BMatP= 1.46D-06
 IDIUse=1 WtCom= 1.00D+00 WtEn= 0.00D+00
 Coeff-Com:  0.345D+00 0.655D+00
 Coeff:      0.345D+00 0.655D+00
 Gap=     0.122 Goal=   None    Shift=    0.000
 RMSDP=5.42D-06 MaxDP=2.48D-04 DE=-5.55D-07 OVMax= 6.77D-04

 Cycle  12  Pass 1  IDiag  1:
 RMSU=  5.40D-06    CP:  1.00D+00  1.01D+00
 E= -1261.04454523752     Delta-E=        0.000000097341 Rises=F Damp=F
 DIIS: error= 4.40D-05 at cycle   3 NSaved=   3.
 NSaved= 3 IEnMin= 2 EnMin= -1261.04454533487     IErMin= 2 ErrMin= 4.13D-05
 ErrMax= 4.40D-05  0.00D+00 EMaxC= 1.00D-01 BMatC= 7.04D-07 BMatP= 6.29D-07
 IDIUse=1 WtCom= 1.00D+00 WtEn= 0.00D+00
 Coeff-Com:  0.709D-02 0.512D+00 0.481D+00
 Coeff:      0.709D-02 0.512D+00 0.481D+00
 Gap=     0.122 Goal=   None    Shift=    0.000
 RMSDP=2.96D-06 MaxDP=1.48D-04 DE= 9.73D-08 OVMax= 3.92D-04

 Cycle  13  Pass 1  IDiag  1:
 RMSU=  7.56D-07    CP:  1.00D+00  1.01D+00  4.73D-01
 E= -1261.04454602374     Delta-E=       -0.000000786220 Rises=F Damp=F
 DIIS: error= 6.86D-06 at cycle   4 NSaved=   4.
 NSaved= 4 IEnMin= 4 EnMin= -1261.04454602374     IErMin= 4 ErrMin= 6.86D-06
 ErrMax= 6.86D-06  0.00D+00 EMaxC= 1.00D-01 BMatC= 2.19D-08 BMatP= 6.29D-07
 IDIUse=1 WtCom= 1.00D+00 WtEn= 0.00D+00
 Coeff-Com: -0.343D-02 0.319D+00 0.313D+00 0.372D+00
 Coeff:     -0.343D-02 0.319D+00 0.313D+00 0.372D+00
 Gap=     0.122 Goal=   None    Shift=    0.000
 RMSDP=5.01D-07 MaxDP=1.80D-05 DE=-7.86D-07 OVMax= 5.35D-05

 Cycle  14  Pass 1  IDiag  1:
 RMSU=  1.56D-07    CP:  1.00D+00  1.01D+00  4.91D-01  3.84D-01
 E= -1261.04454604681     Delta-E=       -0.000000023068 Rises=F Damp=F
 DIIS: error= 1.37D-06 at cycle   5 NSaved=   5.
 NSaved= 5 IEnMin= 5 EnMin= -1261.04454604681     IErMin= 5 ErrMin= 1.37D-06
 ErrMax= 1.37D-06  0.00D+00 EMaxC= 1.00D-01 BMatC= 4.86D-10 BMatP= 2.19D-08
 IDIUse=1 WtCom= 1.00D+00 WtEn= 0.00D+00
 Coeff-Com: -0.239D-02 0.196D+00 0.193D+00 0.241D+00 0.372D+00
 Coeff:     -0.239D-02 0.196D+00 0.193D+00 0.241D+00 0.372D+00
 Gap=     0.122 Goal=   None    Shift=    0.000
 RMSDP=7.93D-08 MaxDP=3.19D-06 DE=-2.31D-08 OVMax= 8.13D-06

 Cycle  15  Pass 1  IDiag  1:
 RMSU=  5.74D-08    CP:  1.00D+00  1.01D+00  4.91D-01  4.28D-01  7.20D-01
 E= -1261.04454604734     Delta-E=       -0.000000000528 Rises=F Damp=F
 DIIS: error= 1.79D-07 at cycle   6 NSaved=   6.
 NSaved= 6 IEnMin= 6 EnMin= -1261.04454604734     IErMin= 6 ErrMin= 1.79D-07
 ErrMax= 1.79D-07  0.00D+00 EMaxC= 1.00D-01 BMatC= 1.01D-11 BMatP= 4.86D-10
 IDIUse=1 WtCom= 1.00D+00 WtEn= 0.00D+00
 Coeff-Com: -0.772D-03 0.603D-01 0.595D-01 0.759D-01 0.171D+00 0.634D+00
 Coeff:     -0.772D-03 0.603D-01 0.595D-01 0.759D-01 0.171D+00 0.634D+00
 Gap=     0.122 Goal=   None    Shift=    0.000
 RMSDP=1.79D-08 MaxDP=5.68D-07 DE=-5.28D-10 OVMax= 2.59D-06

 Cycle  16  Pass 1  IDiag  1:
 RMSU=  1.40D-08    CP:  1.00D+00  1.01D+00  4.91D-01  4.22D-01  7.56D-01
                    CP:  8.49D-01
 E= -1261.04454604734     Delta-E=       -0.000000000001 Rises=F Damp=F
 DIIS: error= 1.01D-07 at cycle   7 NSaved=   7.
 NSaved= 7 IEnMin= 7 EnMin= -1261.04454604734     IErMin= 7 ErrMin= 1.01D-07
 ErrMax= 1.01D-07  0.00D+00 EMaxC= 1.00D-01 BMatC= 4.14D-12 BMatP= 1.01D-11
 IDIUse=1 WtCom= 1.00D+00 WtEn= 0.00D+00
 Coeff-Com: -0.956D-04 0.590D-02 0.586D-02 0.865D-02 0.478D-01 0.431D+00
 Coeff-Com:  0.500D+00
 Coeff:     -0.956D-04 0.590D-02 0.586D-02 0.865D-02 0.478D-01 0.431D+00
 Coeff:      0.500D+00
 Gap=     0.122 Goal=   None    Shift=    0.000
 RMSDP=7.87D-09 MaxDP=2.74D-07 DE=-9.09D-13 OVMax= 9.10D-07

 SCF Done:  E(RB3LYP) =  -1261.04454605     A.U. after   16 cycles
            NFock= 16  Conv=0.79D-08     -V/T= 2.0070
 KE= 1.252301382965D+03 PE=-6.509072687694D+03 EE= 2.213938504152D+03
 Leave Link  502 at Mon Jan 19 14:09:05 2026, MaxMem=  8053063680 cpu:             372.3 elap:              23.3
 (Enter /appl/Gaussian16/AVX_revB01/g16/l508.exe)
 QCSCF skips out because SCF is already converged.
 Leave Link  508 at Mon Jan 19 14:09:05 2026, MaxMem=  8053063680 cpu:               0.1 elap:               0.0
 (Enter /appl/Gaussian16/AVX_revB01/g16/l601.exe)
 Copying SCF densities to generalized density rwf, IOpCl= 0 IROHF=0.

 **********************************************************************

            Population analysis using the SCF Density.

 **********************************************************************

 Orbital symmetries:
       Occupied  (A) (A) (A) (A) (A) (A) (A) (A) (A) (A) (A) (A)
                 (A) (A) (A) (A) (A) (A) (A) (A) (A) (A) (A) (A)
                 (A) (A) (A) (A) (A) (A) (A) (A) (A) (A) (A) (A)
                 (A) (A) (A) (A) (A) (A) (A) (A) (A) (A) (A) (A)
                 (A) (A) (A) (A) (A) (A) (A) (A) (A) (A) (A) (A)
                 (A) (A) (A) (A) (A) (A) (A) (A) (A) (A) (A) (A)
                 (A) (A) (A) (A) (A) (A) (A) (A) (A)
       Virtual   (A) (A) (A) (A) (A) (A) (A) (A) (A) (A) (A) (A)
                 (A) (A) (A) (A) (A) (A) (A) (A) (A) (A) (A) (A)
                 (A) (A) (A) (A) (A) (A) (A) (A) (A) (A) (A) (A)
                 (A) (A) (A) (A) (A) (A) (A) (A) (A) (A) (A) (A)
                 (A) (A) (A) (A) (A) (A) (A) (A) (A) (A) (A) (A)
                 (A) (A) (A) (A) (A) (A) (A) (A) (A) (A) (A) (A)
                 (A) (A) (A) (A) (A) (A) (A) (A) (A) (A) (A) (A)
                 (A) (A) (A) (A) (A) (A) (A) (A) (A) (A) (A) (A)
                 (A) (A) (A) (A) (A) (A) (A) (A) (A) (A) (A) (A)
                 (A) (A) (A) (A) (A) (A) (A) (A) (A) (A) (A) (A)
                 (A) (A) (A) (A) (A) (A) (A) (A) (A) (A) (A) (A)
                 (A) (A) (A) (A) (A) (A) (A) (A) (A) (A) (A) (A)
                 (A) (A) (A) (A) (A) (A) (A) (A) (A) (A) (A) (A)
                 (A) (A) (A) (A) (A) (A) (A) (A) (A) (A) (A) (A)
                 (A) (A) (A) (A) (A) (A) (A) (A) (A) (A) (A) (A)
                 (A) (A) (A) (A) (A) (A) (A) (A) (A) (A) (A) (A)
                 (A) (A) (A) (A) (A) (A) (A) (A) (A) (A) (A) (A)
                 (A) (A) (A) (A) (A) (A) (A) (A) (A) (A) (A) (A)
                 (A) (A) (A) (A) (A) (A) (A) (A) (A) (A) (A) (A)
                 (A) (A) (A) (A) (A) (A) (A) (A) (A) (A) (A) (A)
                 (A) (A) (A) (A) (A) (A) (A) (A) (A) (A) (A) (A)
                 (A) (A) (A) (A) (A) (A) (A) (A) (A) (A) (A) (A)
                 (A) (A) (A) (A) (A) (A) (A) (A) (A) (A) (A) (A)
                 (A) (A) (A) (A) (A) (A) (A) (A) (A) (A) (A) (A)
                 (A) (A) (A) (A) (A) (A)
 The electronic state is 1-A.
 Alpha  occ. eigenvalues --  -88.91061 -14.33279 -10.25631 -10.22180 -10.22037
 Alpha  occ. eigenvalues --  -10.20572 -10.20028 -10.19763 -10.19682 -10.19636
 Alpha  occ. eigenvalues --  -10.19436 -10.19411 -10.19376 -10.19352 -10.19317
 Alpha  occ. eigenvalues --  -10.19205 -10.19102 -10.18877 -10.18725 -10.18687
 Alpha  occ. eigenvalues --  -10.18641 -10.18579 -10.18437  -7.97244  -5.93633
 Alpha  occ. eigenvalues --   -5.93302  -5.92925  -0.97707  -0.88370  -0.86792
 Alpha  occ. eigenvalues --   -0.85164  -0.81967  -0.79302  -0.78229  -0.77011
 Alpha  occ. eigenvalues --   -0.75471  -0.74400  -0.73000  -0.69991  -0.64625
 Alpha  occ. eigenvalues --   -0.64361  -0.61986  -0.60723  -0.59933  -0.59184
 Alpha  occ. eigenvalues --   -0.56080  -0.54601  -0.52279  -0.51033  -0.49928
 Alpha  occ. eigenvalues --   -0.48614  -0.47600  -0.46034  -0.45255  -0.44930
 Alpha  occ. eigenvalues --   -0.44295  -0.43527  -0.42866  -0.42377  -0.42020
 Alpha  occ. eigenvalues --   -0.41662  -0.40128  -0.39648  -0.39361  -0.37649
 Alpha  occ. eigenvalues --   -0.36944  -0.36088  -0.35635  -0.34921  -0.34849
 Alpha  occ. eigenvalues --   -0.33167  -0.32985  -0.31933  -0.29727  -0.28100
 Alpha  occ. eigenvalues --   -0.27425  -0.26950  -0.25846  -0.23389  -0.23154
 Alpha  occ. eigenvalues --   -0.18899
 Alpha virt. eigenvalues --   -0.06697  -0.04396  -0.01077  -0.00285   0.01542
 Alpha virt. eigenvalues --    0.01565   0.04123   0.06121   0.07599   0.08355
 Alpha virt. eigenvalues --    0.10189   0.10601   0.11611   0.13425   0.13919
 Alpha virt. eigenvalues --    0.14677   0.16201   0.16536   0.16944   0.17536
 Alpha virt. eigenvalues --    0.17634   0.18379   0.18860   0.20153   0.20519
 Alpha virt. eigenvalues --    0.21517   0.22515   0.22557   0.24638   0.26390
 Alpha virt. eigenvalues --    0.27083   0.28859   0.29591   0.30209   0.30487
 Alpha virt. eigenvalues --    0.32029   0.32469   0.32740   0.33569   0.34918
 Alpha virt. eigenvalues --    0.35606   0.35876   0.37392   0.38722   0.41379
 Alpha virt. eigenvalues --    0.43762   0.45040   0.48029   0.49376   0.49730
 Alpha virt. eigenvalues --    0.50478   0.51376   0.51391   0.51897   0.52658
 Alpha virt. eigenvalues --    0.52721   0.54315   0.55041   0.55241   0.55644
 Alpha virt. eigenvalues --    0.55853   0.56547   0.56579   0.56967   0.57733
 Alpha virt. eigenvalues --    0.58058   0.58969   0.58980   0.59448   0.59645
 Alpha virt. eigenvalues --    0.59710   0.59806   0.59878   0.61232   0.61563
 Alpha virt. eigenvalues --    0.61893   0.62139   0.62472   0.62544   0.62823
 Alpha virt. eigenvalues --    0.63096   0.63623   0.65340   0.65883   0.67643
 Alpha virt. eigenvalues --    0.68003   0.69443   0.69790   0.70273   0.73827
 Alpha virt. eigenvalues --    0.75687   0.75852   0.76130   0.77815   0.79353
 Alpha virt. eigenvalues --    0.81268   0.81611   0.82469   0.82556   0.83698
 Alpha virt. eigenvalues --    0.83859   0.84045   0.84577   0.84690   0.85417
 Alpha virt. eigenvalues --    0.85916   0.86392   0.87494   0.88073   0.89728
 Alpha virt. eigenvalues --    0.90380   0.90910   0.91118   0.91442   0.93854
 Alpha virt. eigenvalues --    0.94376   0.95036   0.95197   0.96308   0.97075
 Alpha virt. eigenvalues --    0.99003   0.99727   1.01113   1.01544   1.02187
 Alpha virt. eigenvalues --    1.02926   1.04874   1.05637   1.06987   1.08789
 Alpha virt. eigenvalues --    1.09730   1.11508   1.12608   1.14066   1.15927
 Alpha virt. eigenvalues --    1.17181   1.18126   1.18599   1.21703   1.22447
 Alpha virt. eigenvalues --    1.23571   1.23639   1.24766   1.25892   1.26458
 Alpha virt. eigenvalues --    1.29000   1.30226   1.31246   1.34133   1.34327
 Alpha virt. eigenvalues --    1.37079   1.38583   1.39907   1.40902   1.42175
 Alpha virt. eigenvalues --    1.42446   1.42773   1.44513   1.44809   1.45627
 Alpha virt. eigenvalues --    1.46720   1.47330   1.48021   1.48871   1.49277
 Alpha virt. eigenvalues --    1.50376   1.50428   1.50531   1.50942   1.54092
 Alpha virt. eigenvalues --    1.54736   1.55875   1.56450   1.57814   1.62223
 Alpha virt. eigenvalues --    1.67585   1.73445   1.75885   1.76744   1.79231
 Alpha virt. eigenvalues --    1.79674   1.80976   1.83057   1.85256   1.86423
 Alpha virt. eigenvalues --    1.88259   1.89389   1.89452   1.90009   1.91445
 Alpha virt. eigenvalues --    1.92784   1.92827   1.93344   1.93802   1.94398
 Alpha virt. eigenvalues --    1.96268   1.97429   1.98327   1.98386   1.99611
 Alpha virt. eigenvalues --    2.01311   2.01927   2.03012   2.05726   2.07061
 Alpha virt. eigenvalues --    2.10669   2.13260   2.14064   2.14533   2.14813
 Alpha virt. eigenvalues --    2.15624   2.16091   2.16837   2.18963   2.20074
 Alpha virt. eigenvalues --    2.21507   2.22891   2.23099   2.25281   2.26815
 Alpha virt. eigenvalues --    2.27595   2.29450   2.30106   2.31508   2.32623
 Alpha virt. eigenvalues --    2.33055   2.33539   2.35031   2.37211   2.38522
 Alpha virt. eigenvalues --    2.39260   2.39518   2.42232   2.46710   2.50738
 Alpha virt. eigenvalues --    2.52839   2.54674   2.56490   2.59632   2.61927
 Alpha virt. eigenvalues --    2.63336   2.65672   2.66816   2.66996   2.68658
 Alpha virt. eigenvalues --    2.68698   2.70588   2.71087   2.72038   2.73963
 Alpha virt. eigenvalues --    2.75306   2.76685   2.77575   2.78305   2.80495
 Alpha virt. eigenvalues --    2.82964   2.86587   2.87988   2.89855   2.92305
 Alpha virt. eigenvalues --    2.94916   2.97873   3.01755   3.05060   3.11196
 Alpha virt. eigenvalues --    3.19837   3.23449   3.35808   3.45188   3.48439
 Alpha virt. eigenvalues --    3.54009   3.96316   4.08711   4.09655   4.09746
 Alpha virt. eigenvalues --    4.10382   4.11339   4.11586   4.12343   4.13093
 Alpha virt. eigenvalues --    4.13744   4.16948   4.21418   4.24316   4.32619
 Alpha virt. eigenvalues --    4.33267   4.36388   4.37929   4.43230   4.47341
 Alpha virt. eigenvalues --    4.48302   4.68998   4.72271   4.89411
          Condensed to atoms (all electrons):
               1          2          3          4          5          6
     1  C    4.846111   0.552680  -0.038054  -0.034397   0.000834   0.000007
     2  C    0.552680   4.857943   0.518736  -0.010047   0.007700  -0.000146
     3  C   -0.038054   0.518736   5.027532   0.521989  -0.047698   0.005283
     4  C   -0.034397  -0.010047   0.521989   4.771056   0.304037  -0.058463
     5  C    0.000834   0.007700  -0.047698   0.304037   5.134640   0.462360
     6  N    0.000007  -0.000146   0.005283  -0.058463   0.462360   6.965209
     7  C    0.000000   0.000002  -0.000105   0.005462  -0.059141   0.403373
     8  C    0.000000  -0.000004   0.000058   0.004003  -0.053238  -0.113403
     9  C   -0.000000   0.000000   0.000003  -0.000087   0.003007   0.010617
    10  C    0.000000  -0.000000  -0.000000   0.000002  -0.000247  -0.000436
    11  C    0.000000  -0.000000  -0.000000   0.000005   0.000281   0.006833
    12  C   -0.000000  -0.000000  -0.000000   0.000000   0.000010  -0.000113
    13  C    0.000000   0.000000   0.000000  -0.000000  -0.000001   0.000017
    14  C   -0.000000   0.000000  -0.000000  -0.000000  -0.000000   0.000000
    15  C   -0.000000  -0.000000   0.000000   0.000000   0.000000  -0.000000
    16  C   -0.000000   0.000000  -0.000000   0.000000  -0.000000  -0.000000
    17  C   -0.000000   0.000000  -0.000000   0.000000   0.000000  -0.000016
    18  C   -0.000000  -0.000000   0.000000  -0.000000  -0.000006   0.000592
    19  C   -0.000000   0.000000   0.000000  -0.000037  -0.000507  -0.009895
    20  C    0.000000  -0.000000   0.000003  -0.000148   0.007805  -0.078259
    21  S   -0.000005   0.000285  -0.004052  -0.077742   0.272037  -0.098763
    22  C   -0.037024  -0.044884  -0.068888   0.526102  -0.058162  -0.009056
    23  C    0.545486  -0.022618  -0.049054  -0.014165   0.008499   0.000649
    24  H    0.361017  -0.043934   0.005358   0.000615   0.000006   0.000000
    25  H   -0.042813   0.358314  -0.039331   0.003304  -0.000212   0.000001
    26  H    0.004598  -0.040680   0.351446  -0.042631  -0.012525   0.000112
    27  H    0.000000   0.000000   0.000000   0.000001  -0.000013  -0.000150
    28  H   -0.000000   0.000000   0.000000  -0.000000  -0.000002   0.000004
    29  H    0.000000   0.000000  -0.000000   0.000000  -0.000000   0.000001
    30  H    0.000000  -0.000000  -0.000000   0.000000   0.000000   0.000000
    31  H   -0.000000   0.000000  -0.000000  -0.000000  -0.000000  -0.000000
    32  H    0.000000   0.000000   0.000000  -0.000000  -0.000000   0.000000
    33  H    0.000000  -0.000000   0.000000   0.000000  -0.000000  -0.000003
    34  H    0.000000  -0.000000   0.000000  -0.000061  -0.000181   0.015253
    35  H    0.004671   0.000227   0.006669  -0.036342  -0.017129   0.018470
    36  H   -0.044044   0.004840   0.000997   0.003423  -0.000261  -0.000004
               7          8          9         10         11         12
     1  C    0.000000   0.000000  -0.000000   0.000000   0.000000  -0.000000
     2  C    0.000002  -0.000004   0.000000  -0.000000  -0.000000  -0.000000
     3  C   -0.000105   0.000058   0.000003  -0.000000  -0.000000  -0.000000
     4  C    0.005462   0.004003  -0.000087   0.000002   0.000005   0.000000
     5  C   -0.059141  -0.053238   0.003007  -0.000247   0.000281   0.000010
     6  N    0.403373  -0.113403   0.010617  -0.000436   0.006833  -0.000113
     7  C    4.904053   0.391401   0.036823  -0.079823   0.021291   0.018550
     8  C    0.391401   5.344865   0.377923  -0.005629  -0.064605  -0.001281
     9  C    0.036823   0.377923   5.033627   0.495705   0.019661   0.009968
    10  C   -0.079823  -0.005629   0.495705   5.115683   0.409970  -0.093655
    11  C    0.021291  -0.064605   0.019661   0.409970   4.779454   0.395277
    12  C    0.018550  -0.001281   0.009968  -0.093655   0.395277   5.495446
    13  C    0.000140   0.000083  -0.000378   0.008014   0.010168   0.384205
    14  C   -0.000006   0.000001   0.000002  -0.000227   0.008558  -0.092364
    15  C    0.000000  -0.000000  -0.000000   0.000002  -0.000340   0.008811
    16  C    0.000003   0.000000  -0.000000   0.000000   0.000027  -0.000766
    17  C   -0.000353  -0.000001   0.000000  -0.000006   0.000025   0.017069
    18  C    0.007254  -0.000457   0.000092  -0.000558  -0.033807  -0.015128
    19  C   -0.097778   0.020272  -0.002886   0.019266  -0.063663  -0.127166
    20  C    0.312137  -0.029983  -0.051838  -0.020616   0.440251  -0.010281
    21  S   -0.076005   0.302367  -0.052728   0.003561   0.000555   0.000007
    22  C    0.000674   0.000089  -0.000001   0.000000  -0.000000  -0.000000
    23  C   -0.000004   0.000002  -0.000000   0.000000  -0.000000  -0.000000
    24  H   -0.000000  -0.000000  -0.000000   0.000000  -0.000000   0.000000
    25  H   -0.000000  -0.000000  -0.000000   0.000000  -0.000000   0.000000
    26  H   -0.000006   0.000083   0.000002  -0.000000   0.000000   0.000000
    27  H    0.002439  -0.040410   0.358067  -0.031136   0.001892  -0.000226
    28  H    0.000489   0.004842  -0.046961   0.357908  -0.039275  -0.009357
    29  H   -0.000193   0.000021   0.000201  -0.008298  -0.043659   0.347818
    30  H    0.000000  -0.000000   0.000000  -0.000005   0.000162  -0.009430
    31  H   -0.000000   0.000000  -0.000000  -0.000000   0.000004  -0.000223
    32  H   -0.000000   0.000000   0.000000   0.000000  -0.000001   0.000012
    33  H    0.000002  -0.000000   0.000000  -0.000000   0.000011  -0.000189
    34  H   -0.011093   0.000650  -0.000032  -0.000151   0.004230   0.000357
    35  H    0.000440   0.000056  -0.000001   0.000000  -0.000001  -0.000000
    36  H   -0.000000  -0.000000   0.000000  -0.000000  -0.000000   0.000000
              13         14         15         16         17         18
     1  C    0.000000  -0.000000  -0.000000  -0.000000  -0.000000  -0.000000
     2  C    0.000000   0.000000  -0.000000   0.000000   0.000000  -0.000000
     3  C    0.000000  -0.000000   0.000000  -0.000000  -0.000000   0.000000
     4  C   -0.000000  -0.000000   0.000000   0.000000   0.000000  -0.000000
     5  C   -0.000001  -0.000000   0.000000  -0.000000   0.000000  -0.000006
     6  N    0.000017   0.000000  -0.000000  -0.000000  -0.000016   0.000592
     7  C    0.000140  -0.000006   0.000000   0.000003  -0.000353   0.007254
     8  C    0.000083   0.000001  -0.000000   0.000000  -0.000001  -0.000457
     9  C   -0.000378   0.000002  -0.000000  -0.000000   0.000000   0.000092
    10  C    0.008014  -0.000227   0.000002   0.000000  -0.000006  -0.000558
    11  C    0.010168   0.008558  -0.000340   0.000027   0.000025  -0.033807
    12  C    0.384205  -0.092364   0.008811  -0.000766   0.017069  -0.015128
    13  C    4.728692   0.439128  -0.001764  -0.039676  -0.031469   0.462383
    14  C    0.439128   5.093372   0.532254  -0.019365  -0.072395  -0.030952
    15  C   -0.001764   0.532254   4.903022   0.483534  -0.019736  -0.040428
    16  C   -0.039676  -0.019365   0.483534   4.904509   0.531161  -0.000659
    17  C   -0.031469  -0.072395  -0.019736   0.531161   5.090237   0.432417
    18  C    0.462383  -0.030952  -0.040428  -0.000659   0.432417   4.763571
    19  C   -0.015358   0.016805  -0.000610   0.008424  -0.087825   0.354310
    20  C   -0.038397  -0.000427   0.000041  -0.000343   0.008790   0.020791
    21  S    0.000000   0.000000   0.000000   0.000000  -0.000000   0.000013
    22  C    0.000000   0.000000  -0.000000   0.000000   0.000000   0.000000
    23  C    0.000000   0.000000  -0.000000  -0.000000  -0.000000   0.000000
    24  H   -0.000000  -0.000000   0.000000  -0.000000   0.000000   0.000000
    25  H    0.000000   0.000000  -0.000000   0.000000  -0.000000   0.000000
    26  H   -0.000000  -0.000000   0.000000  -0.000000   0.000000   0.000000
    27  H    0.000004  -0.000000  -0.000000   0.000000  -0.000000  -0.000001
    28  H    0.000203  -0.000004   0.000000  -0.000000   0.000000   0.000015
    29  H   -0.041428  -0.008785   0.000171   0.000019  -0.000202   0.004781
    30  H   -0.041924   0.354202  -0.047135   0.004802   0.000535   0.005088
    31  H    0.002780  -0.036801   0.357463  -0.042582   0.004403   0.001113
    32  H    0.001117   0.004468  -0.042793   0.357158  -0.036595   0.002861
    33  H    0.004865   0.000514   0.004815  -0.047409   0.355883  -0.042124
    34  H    0.004373  -0.000173   0.000015   0.000175  -0.007715  -0.044153
    35  H    0.000000  -0.000000  -0.000000  -0.000000  -0.000000   0.000001
    36  H   -0.000000  -0.000000   0.000000   0.000000   0.000000  -0.000000
              19         20         21         22         23         24
     1  C   -0.000000   0.000000  -0.000005  -0.037024   0.545486   0.361017
     2  C    0.000000  -0.000000   0.000285  -0.044884  -0.022618  -0.043934
     3  C    0.000000   0.000003  -0.004052  -0.068888  -0.049054   0.005358
     4  C   -0.000037  -0.000148  -0.077742   0.526102  -0.014165   0.000615
     5  C   -0.000507   0.007805   0.272037  -0.058162   0.008499   0.000006
     6  N   -0.009895  -0.078259  -0.098763  -0.009056   0.000649   0.000000
     7  C   -0.097778   0.312137  -0.076005   0.000674  -0.000004  -0.000000
     8  C    0.020272  -0.029983   0.302367   0.000089   0.000002  -0.000000
     9  C   -0.002886  -0.051838  -0.052728  -0.000001  -0.000000  -0.000000
    10  C    0.019266  -0.020616   0.003561   0.000000   0.000000   0.000000
    11  C   -0.063663   0.440251   0.000555  -0.000000  -0.000000  -0.000000
    12  C   -0.127166  -0.010281   0.000007  -0.000000  -0.000000   0.000000
    13  C   -0.015358  -0.038397   0.000000   0.000000   0.000000  -0.000000
    14  C    0.016805  -0.000427   0.000000   0.000000   0.000000  -0.000000
    15  C   -0.000610   0.000041   0.000000  -0.000000  -0.000000   0.000000
    16  C    0.008424  -0.000343   0.000000   0.000000  -0.000000  -0.000000
    17  C   -0.087825   0.008790  -0.000000   0.000000  -0.000000   0.000000
    18  C    0.354310   0.020791   0.000013   0.000000   0.000000   0.000000
    19  C    5.572134   0.355892   0.000233  -0.000009   0.000000   0.000000
    20  C    0.355892   4.972950   0.005813  -0.000023  -0.000000  -0.000000
    21  S    0.000233   0.005813  15.489855   0.008388  -0.000096  -0.000001
    22  C   -0.000009  -0.000023   0.008388   4.995997   0.508090   0.004941
    23  C    0.000000  -0.000000  -0.000096   0.508090   4.882995  -0.044490
    24  H    0.000000  -0.000000  -0.000001   0.004941  -0.044490   0.595789
    25  H    0.000000   0.000000   0.000003   0.001028   0.004717  -0.005937
    26  H    0.000000  -0.000000   0.011075   0.005644   0.000414  -0.000185
    27  H    0.000024   0.001345  -0.002420   0.000000   0.000000   0.000000
    28  H   -0.000163   0.005009  -0.000179   0.000000  -0.000000   0.000000
    29  H    0.000529   0.004453  -0.000000  -0.000000  -0.000000   0.000000
    30  H   -0.000208   0.000022  -0.000000  -0.000000  -0.000000   0.000000
    31  H    0.000014  -0.000001   0.000000   0.000000  -0.000000   0.000000
    32  H   -0.000235   0.000004  -0.000000  -0.000000   0.000000   0.000000
    33  H   -0.008374   0.000342  -0.000000  -0.000000  -0.000000   0.000000
    34  H    0.352888  -0.039661   0.000117  -0.000028   0.000001  -0.000000
    35  H   -0.000003  -0.000100   0.000585   0.354818  -0.047534  -0.000165
    36  H    0.000000  -0.000000   0.000005  -0.039513   0.359036  -0.005940
              25         26         27         28         29         30
     1  C   -0.042813   0.004598   0.000000  -0.000000   0.000000   0.000000
[...]
               7          8          9         10         11         12
     1  C    0.000000   0.000000  -0.000000   0.000000   0.000000  -0.000000
     2  C    0.000002  -0.000003   0.000000  -0.000000  -0.000000  -0.000000
     3  C   -0.000125   0.000045   0.000002  -0.000000  -0.000000  -0.000000
     4  C    0.005358   0.003432  -0.000064   0.000001   0.000004   0.000000
     5  C   -0.054284  -0.049583   0.002700  -0.000202   0.000199   0.000008
     6  N    0.390588  -0.105208   0.009199  -0.000368   0.005945  -0.000096
     7  C    4.882824   0.401748   0.029489  -0.071152   0.013450   0.016045
     8  C    0.401748   5.331373   0.381222  -0.009812  -0.058497  -0.001044
     9  C    0.029489   0.381222   5.023413   0.505242   0.012964   0.008849
    10  C   -0.071152  -0.009812   0.505242   5.095338   0.413277  -0.085702
    11  C    0.013450  -0.058497   0.012964   0.413277   4.775196   0.407357
    12  C    0.016045  -0.001044   0.008849  -0.085702   0.407357   5.448945
    13  C    0.000128   0.000065  -0.000329   0.007258   0.005934   0.394289
    14  C   -0.000004   0.000000   0.000001  -0.000195   0.007593  -0.085290
    15  C    0.000000  -0.000000  -0.000000   0.000002  -0.000294   0.007906
    16  C    0.000002   0.000000  -0.000000   0.000000   0.000024  -0.000622
    17  C   -0.000288  -0.000001   0.000000  -0.000006   0.000021   0.015174
    18  C    0.006471  -0.000378   0.000075  -0.000448  -0.031355  -0.017913
    19  C   -0.089904   0.018240  -0.002449   0.017009  -0.061252  -0.114410
    20  C    0.329112  -0.032749  -0.046550  -0.023031   0.444200  -0.013698
    21  S   -0.077193   0.297858  -0.048570   0.003192   0.000547   0.000008
    22  C    0.000579   0.000061  -0.000001   0.000000  -0.000000  -0.000000
    23  C   -0.000005   0.000001  -0.000000   0.000000  -0.000000  -0.000000
    24  H   -0.000000  -0.000000  -0.000000   0.000000  -0.000000   0.000000
    25  H   -0.000000  -0.000000  -0.000000   0.000000  -0.000000   0.000000
    26  H   -0.000004   0.000052   0.000001  -0.000000   0.000000   0.000000
    27  H    0.002180  -0.039247   0.358311  -0.030736   0.001971  -0.000207
    28  H    0.000477   0.004577  -0.045320   0.357105  -0.038458  -0.008267
    29  H   -0.000178   0.000019   0.000183  -0.007695  -0.042720   0.347293
    30  H    0.000000  -0.000000   0.000000  -0.000004   0.000128  -0.008456
    31  H   -0.000000   0.000000   0.000000  -0.000000   0.000003  -0.000201
    32  H   -0.000000   0.000000   0.000000   0.000000  -0.000000   0.000010
    33  H    0.000000  -0.000000   0.000000  -0.000000   0.000011  -0.000174
    34  H   -0.010312   0.000550  -0.000025  -0.000144   0.003994   0.000354
    35  H    0.000309   0.000050  -0.000001   0.000000  -0.000001  -0.000000
    36  H   -0.000000  -0.000000   0.000000  -0.000000  -0.000000   0.000000
              13         14         15         16         17         18
     1  C    0.000000  -0.000000  -0.000000  -0.000000  -0.000000  -0.000000
     2  C   -0.000000   0.000000  -0.000000   0.000000   0.000000  -0.000000
     3  C    0.000000  -0.000000   0.000000  -0.000000  -0.000000   0.000000
     4  C   -0.000000  -0.000000   0.000000   0.000000   0.000000  -0.000000
     5  C   -0.000001  -0.000000   0.000000   0.000000   0.000000  -0.000006
     6  N    0.000014   0.000000  -0.000000  -0.000000  -0.000015   0.000562
     7  C    0.000128  -0.000004   0.000000   0.000002  -0.000288   0.006471
     8  C    0.000065   0.000000  -0.000000   0.000000  -0.000001  -0.000378
     9  C   -0.000329   0.000001  -0.000000  -0.000000   0.000000   0.000075
    10  C    0.007258  -0.000195   0.000002   0.000000  -0.000006  -0.000448
    11  C    0.005934   0.007593  -0.000294   0.000024   0.000021  -0.031355
    12  C    0.394289  -0.085290   0.007906  -0.000622   0.015174  -0.017913
    13  C    4.729546   0.441280  -0.005092  -0.036587  -0.032357   0.462169
    14  C    0.441280   5.078397   0.535035  -0.021686  -0.065388  -0.031975
    15  C   -0.005092   0.535035   4.905783   0.480096  -0.021722  -0.037228
    16  C   -0.036587  -0.021686   0.480096   4.907445   0.534300  -0.004833
    17  C   -0.032357  -0.065388  -0.021722   0.534300   5.074749   0.435131
    18  C    0.462169  -0.031975  -0.037228  -0.004833   0.435131   4.763624
    19  C   -0.018058   0.014721  -0.000499   0.007547  -0.080449   0.367688
    20  C   -0.035536  -0.000323   0.000034  -0.000298   0.007921   0.014376
    21  S    0.000000   0.000000   0.000000   0.000000  -0.000000   0.000012
    22  C    0.000000   0.000000  -0.000000   0.000000   0.000000   0.000000
    23  C    0.000000   0.000000  -0.000000  -0.000000  -0.000000   0.000000
    24  H   -0.000000  -0.000000   0.000000  -0.000000   0.000000   0.000000
    25  H    0.000000   0.000000  -0.000000  -0.000000  -0.000000   0.000000
    26  H   -0.000000  -0.000000   0.000000  -0.000000   0.000000  -0.000000
    27  H    0.000003  -0.000000  -0.000000   0.000000  -0.000000  -0.000001
    28  H    0.000165  -0.000004   0.000000  -0.000000   0.000000   0.000014
    29  H   -0.040511  -0.007996   0.000142   0.000017  -0.000186   0.004471
    30  H   -0.040996   0.353651  -0.045476   0.004522   0.000466   0.004661
    31  H    0.002729  -0.036322   0.357118  -0.041213   0.004117   0.000977
    32  H    0.000980   0.004176  -0.041462   0.356860  -0.036123   0.002820
    33  H    0.004461   0.000462   0.004528  -0.045649   0.355077  -0.041181
    34  H    0.004075  -0.000159   0.000014   0.000157  -0.007119  -0.043336
    35  H    0.000000  -0.000000  -0.000000  -0.000000  -0.000000   0.000001
    36  H   -0.000000  -0.000000   0.000000   0.000000   0.000000  -0.000000
              19         20         21         22         23         24
     1  C   -0.000000   0.000000  -0.000002  -0.036006   0.540798   0.360129
     2  C   -0.000000  -0.000000   0.000154  -0.042527  -0.024268  -0.042585
     3  C    0.000000   0.000002  -0.002602  -0.065384  -0.046227   0.004952
     4  C   -0.000030  -0.000118  -0.071339   0.524261  -0.016936   0.000583
     5  C   -0.000448   0.007812   0.270561  -0.054543   0.007491   0.000006
     6  N   -0.008470  -0.074603  -0.093407  -0.008050   0.000595   0.000000
     7  C   -0.089904   0.329112  -0.077193   0.000579  -0.000005  -0.000000
     8  C    0.018240  -0.032749   0.297858   0.000061   0.000001  -0.000000
     9  C   -0.002449  -0.046550  -0.048570  -0.000001  -0.000000  -0.000000
    10  C    0.017009  -0.023031   0.003192   0.000000   0.000000   0.000000
    11  C   -0.061252   0.444200   0.000547  -0.000000  -0.000000  -0.000000
    12  C   -0.114410  -0.013698   0.000008  -0.000000  -0.000000   0.000000
    13  C   -0.018058  -0.035536   0.000000   0.000000   0.000000  -0.000000
    14  C    0.014721  -0.000323   0.000000   0.000000   0.000000  -0.000000
    15  C   -0.000499   0.000034   0.000000  -0.000000  -0.000000   0.000000
    16  C    0.007547  -0.000298   0.000000   0.000000  -0.000000  -0.000000
    17  C   -0.080449   0.007921  -0.000000   0.000000  -0.000000   0.000000
    18  C    0.367688   0.014376   0.000012   0.000000   0.000000   0.000000
    19  C    5.517521   0.371045   0.000185  -0.000008   0.000000   0.000000
    20  C    0.371045   4.951252   0.005472  -0.000017  -0.000000  -0.000000
    21  S    0.000185   0.005472  15.477661   0.007349  -0.000075  -0.000001
    22  C   -0.000008  -0.000017   0.007349   4.989973   0.508713   0.004546
    23  C    0.000000  -0.000000  -0.000075   0.508713   4.887828  -0.042926
    24  H    0.000000  -0.000000  -0.000001   0.004546  -0.042926   0.591304
    25  H    0.000000   0.000000   0.000002   0.000892   0.004446  -0.005392
    26  H    0.000000  -0.000000   0.009998   0.005322   0.000378  -0.000172
    27  H    0.000021   0.001184  -0.002049   0.000000   0.000000   0.000000
    28  H   -0.000154   0.004523  -0.000161   0.000000  -0.000000   0.000000
    29  H    0.000498   0.004154  -0.000000  -0.000000  -0.000000   0.000000
    30  H   -0.000183   0.000018  -0.000000  -0.000000  -0.000000   0.000000
    31  H    0.000012  -0.000001   0.000000   0.000000  -0.000000   0.000000
    32  H   -0.000210   0.000003  -0.000000  -0.000000   0.000000   0.000000
    33  H   -0.007435   0.000278  -0.000000  -0.000000  -0.000000   0.000000
    34  H    0.352130  -0.037936   0.000101  -0.000025   0.000001  -0.000000
    35  H   -0.000002  -0.000085   0.000526   0.354412  -0.045654  -0.000151
    36  H    0.000000  -0.000000   0.000004  -0.038701   0.358721  -0.005413
              25         26         27         28         29         30
     1  C   -0.041668   0.004450   0.000000  -0.000000   0.000000   0.000000
     2  C    0.358263  -0.040652   0.000000   0.000000   0.000000  -0.000000
     3  C   -0.038545   0.351519   0.000000   0.000000  -0.000000  -0.000000
     4  C    0.003177  -0.040647   0.000000  -0.000000   0.000000   0.000000
     5  C   -0.000177  -0.011084  -0.000015  -0.000001  -0.000000   0.000000
     6  N    0.000001   0.000072  -0.000122   0.000003   0.000001   0.000000
     7  C   -0.000000  -0.000004   0.002180   0.000477  -0.000178   0.000000
     8  C   -0.000000   0.000052  -0.039247   0.004577   0.000019  -0.000000
     9  C   -0.000000   0.000001   0.358311  -0.045320   0.000183   0.000000
    10  C    0.000000  -0.000000  -0.030736   0.357105  -0.007695  -0.000004
    11  C   -0.000000   0.000000   0.001971  -0.038458  -0.042720   0.000128
    12  C    0.000000   0.000000  -0.000207  -0.008267   0.347293  -0.008456
    13  C    0.000000  -0.000000   0.000003   0.000165  -0.040511  -0.040996
    14  C    0.000000  -0.000000  -0.000000  -0.000004  -0.007996   0.353651
    15  C   -0.000000   0.000000  -0.000000   0.000000   0.000142  -0.045476
    16  C   -0.000000  -0.000000   0.000000  -0.000000   0.000017   0.004522
    17  C   -0.000000   0.000000  -0.000000   0.000000  -0.000186   0.000466
    18  C    0.000000  -0.000000  -0.000001   0.000014   0.004471   0.004661
    19  C    0.000000   0.000000   0.000021  -0.000154   0.000498  -0.000183
    20  C    0.000000  -0.000000   0.001184   0.004523   0.004154   0.000018
    21  S    0.000002   0.009998  -0.002049  -0.000161  -0.000000  -0.000000
    22  C    0.000892   0.005322   0.000000   0.000000  -0.000000  -0.000000
    23  C    0.004446   0.000378   0.000000  -0.000000  -0.000000  -0.000000
    24  H   -0.005392  -0.000172   0.000000   0.000000   0.000000   0.000000
    25  H    0.588082  -0.005253   0.000000   0.000000  -0.000000  -0.000000
    26  H   -0.005253   0.577304   0.000000  -0.000000   0.000000   0.000000
    27  H    0.000000   0.000000   0.568111  -0.004936  -0.000012  -0.000000
    28  H    0.000000  -0.000000  -0.004936   0.589303   0.006590   0.000002
    29  H   -0.000000   0.000000  -0.000012   0.006590   0.598950   0.006677
    30  H   -0.000000   0.000000  -0.000000   0.000002   0.006677   0.600975
    31  H    0.000000  -0.000000  -0.000000   0.000000  -0.000012  -0.005561
    32  H    0.000000   0.000000   0.000000  -0.000000  -0.000000  -0.000185
    33  H   -0.000000   0.000000  -0.000000   0.000000   0.000003   0.000019
    34  H    0.000000  -0.000000   0.000000   0.000002   0.000022   0.000002
    35  H    0.000016  -0.000157   0.000000   0.000000   0.000000   0.000000
    36  H   -0.000181   0.000016  -0.000000   0.000000  -0.000000  -0.000000
              31         32         33         34         35         36
     1  C   -0.000000   0.000000   0.000000   0.000000   0.004411  -0.042875
     2  C    0.000000   0.000000  -0.000000  -0.000000   0.000221   0.004546
     3  C   -0.000000   0.000000   0.000000   0.000000   0.006189   0.000883
     4  C   -0.000000  -0.000000   0.000000  -0.000048  -0.035670   0.003321
     5  C   -0.000000  -0.000000  -0.000000  -0.000204  -0.015698  -0.000223
     6  N   -0.000000   0.000000  -0.000003   0.014354   0.017557  -0.000004
     7  C   -0.000000  -0.000000   0.000000  -0.010312   0.000309  -0.000000
     8  C    0.000000   0.000000  -0.000000   0.000550   0.000050  -0.000000
     9  C    0.000000   0.000000   0.000000  -0.000025  -0.000001   0.000000
    10  C   -0.000000   0.000000  -0.000000  -0.000144   0.000000  -0.000000
    11  C    0.000003  -0.000000   0.000011   0.003994  -0.000001  -0.000000
    12  C   -0.000201   0.000010  -0.000174   0.000354  -0.000000   0.000000
    13  C    0.002729   0.000980   0.004461   0.004075   0.000000  -0.000000
    14  C   -0.036322   0.004176   0.000462  -0.000159  -0.000000  -0.000000
    15  C    0.357118  -0.041462   0.004528   0.000014  -0.000000   0.000000
    16  C   -0.041213   0.356860  -0.045649   0.000157  -0.000000   0.000000
    17  C    0.004117  -0.036123   0.355077  -0.007119  -0.000000   0.000000
    18  C    0.000977   0.002820  -0.041181  -0.043336   0.000001  -0.000000
    19  C    0.000012  -0.000210  -0.007435   0.352130  -0.000002   0.000000
    20  C   -0.000001   0.000003   0.000278  -0.037936  -0.000085  -0.000000
    21  S    0.000000  -0.000000  -0.000000   0.000101   0.000526   0.000004
    22  C    0.000000  -0.000000  -0.000000  -0.000025   0.354412  -0.038701
    23  C   -0.000000   0.000000  -0.000000   0.000001  -0.045654   0.358721
    24  H    0.000000   0.000000   0.000000  -0.000000  -0.000151  -0.005413
    25  H    0.000000   0.000000  -0.000000   0.000000   0.000016  -0.000181
    26  H   -0.000000   0.000000   0.000000  -0.000000  -0.000157   0.000016
    27  H   -0.000000   0.000000  -0.000000   0.000000   0.000000  -0.000000
    28  H    0.000000  -0.000000   0.000000   0.000002   0.000000   0.000000
    29  H   -0.000012  -0.000000   0.000003   0.000022   0.000000  -0.000000
    30  H   -0.005561  -0.000185   0.000019   0.000002   0.000000  -0.000000
    31  H    0.592582  -0.004721  -0.000183  -0.000000  -0.000000   0.000000
    32  H   -0.004721   0.592359  -0.005543  -0.000011   0.000000  -0.000000
    33  H   -0.000183  -0.005543   0.596609   0.005854   0.000000  -0.000000
    34  H   -0.000000  -0.000011   0.005854   0.564643   0.000435  -0.000000
    35  H   -0.000000   0.000000   0.000000   0.000435   0.556583  -0.004960
    36  H    0.000000  -0.000000  -0.000000  -0.000000  -0.004960   0.588495
 Mulliken charges:
               1
     1  C   -0.121100
     2  C   -0.137469
     3  C   -0.190667
     4  C    0.127163
     5  C    0.048146
     6  N   -0.518671
     7  C    0.224685
     8  C   -0.142773
     9  C   -0.188344
    10  C   -0.168930
    11  C    0.139761
    12  C   -0.310156
    13  C    0.156372
    14  C   -0.185975
    15  C   -0.138885
    16  C   -0.140082
    17  C   -0.183304
    18  C    0.145601
    19  C   -0.282654
    20  C    0.123557
    21  S    0.221770
    22  C   -0.150845
    23  C   -0.132881
    24  H    0.135120
    25  H    0.136337
    26  H    0.148857
    27  H    0.145543
    28  H    0.134539
    29  H    0.130291
    30  H    0.129739
    31  H    0.130676
    32  H    0.131048
    33  H    0.132863
    34  H    0.152629
    35  H    0.161669
    36  H    0.136370
 Sum of Mulliken charges =  -0.00000
 Mulliken charges with hydrogens summed into heavy atoms:
               1
     1  C    0.014020
     2  C   -0.001132
     3  C   -0.041809
     4  C    0.127163
     5  C    0.048146
     6  N   -0.518671
     7  C    0.224685
     8  C   -0.142773
     9  C   -0.042801
    10  C   -0.034390
    11  C    0.139761
    12  C   -0.179865
    13  C    0.156372
    14  C   -0.056236
    15  C   -0.008210
    16  C   -0.009034
    17  C   -0.050441
    18  C    0.145601
    19  C   -0.130026
    20  C    0.123557
    21  S    0.221770
    22  C    0.010824
    23  C    0.003489
 Electronic spatial extent (au):  <R**2>=          10027.5001
 Charge=             -0.0000 electrons
 Dipole moment (field-independent basis, Debye):
    X=              0.3729    Y=              0.2625    Z=              0.0000  Tot=              0.4560
 Quadrupole moment (field-independent basis, Debye-Ang):
   XX=           -113.2553   YY=           -120.6951   ZZ=           -144.8376
   XY=             -3.0384   XZ=             -0.0000   YZ=              0.0000
 Traceless Quadrupole moment (field-independent basis, Debye-Ang):
   XX=             13.0074   YY=              5.5675   ZZ=            -18.5750
   XY=             -3.0384   XZ=             -0.0000   YZ=              0.0000
 Octapole moment (field-independent basis, Debye-Ang**2):
  XXX=             33.7974  YYY=             -4.3730  ZZZ=             -0.0000  XYY=             -4.9126
  XXY=            -21.3103  XXZ=              0.0002  XZZ=              4.5588  YZZ=              2.4974
  YYZ=              0.0000  XYZ=             -0.0002
 Hexadecapole moment (field-independent basis, Debye-Ang**3):
 XXXX=          -9728.3721 YYYY=          -2457.4012 ZZZZ=           -152.6335 XXXY=            -58.6250
 XXXZ=             -0.0004 YYYX=            -39.1776 YYYZ=              0.0002 ZZZX=             -0.0001
 ZZZY=             -0.0001 XXYY=          -2061.0545 XXZZ=          -2046.5053 YYZZ=           -520.9475
 XXYZ=             -0.0000 YYXZ=              0.0001 ZZXY=              4.1481
 N-N= 1.766546039478D+03 E-N=-6.477839928099D+03  KE= 1.251408516153D+03
 No NMR shielding tensors so no spin-rotation constants.
 Leave Link  601 at Mon Jan 19 14:11:06 2026, MaxMem=  8053063680 cpu:               2.0 elap:               0.1
 (Enter /appl/Gaussian16/AVX_revB01/g16/l9999.exe)
 1\1\GINC-CNODE9\FOpt\RB3LYP\6-31G(d)\C21H13N1S1\JUNHKIM\19-Jan-2026\0\
 \#P b3lyp/6-31g* opt SCF=XQC\\Gaussian input prepared by ASE\\0,1\C,6.
 1402208607,1.2230120162,-1.0003030725\C,6.1710734905,-0.0327924532,-0.
 3909125684\C,4.9851650508,-0.6569945375,-0.0110799644\C,3.7468277042,-
 0.0334690699,-0.2353242108\C,2.4765408154,-0.6586876964,0.1504074359\N
 ,1.306529491,-0.1152538794,-0.0392188755\C,0.286056583,-0.9144916268,0
 .4152280597\C,0.6762704416,-2.1299341719,0.9819497134\C,-0.2639744282,
 -3.0626592911,1.4962409246\C,-1.5957166864,-2.7516710562,1.4301294123\
 C,-2.0621153884,-1.5187913054,0.8597978422\C,-3.4240668206,-1.20870938
 13,0.7960622158\C,-3.8849143576,-0.0060191601,0.2400717107\C,-5.274190
 227,0.3194655354,0.1705872961\C,-5.6934591202,1.5034061092,-0.37893816
 53\C,-4.746295539,2.4351131896,-0.8931770954\C,-3.4039993613,2.1592901
 74,-0.8448608089\C,-2.9253687111,0.937679762,-0.2807981922\C,-1.557212
 9816,0.6292517218,-0.2182648206\C,-1.1088191069,-0.5683870922,0.336064
 2912\S,2.4147827988,-2.259957165,0.9339177952\C,3.7252860365,1.2318637
 113,-0.8499495425\C,4.9125023662,1.8511484101,-1.2274718619\H,7.066026
 6393,1.7087433122,-1.2960653336\H,7.120579024,-0.5289449505,-0.2101796
 99\H,5.0270640383,-1.6346059232,0.462169963\H,0.0684341808,-3.99998509
 35,1.9312710345\H,-2.3338215431,-3.4494453237,1.8170954127\H,-4.147784
 7075,-1.9202012095,1.1887841998\H,-5.9950094595,-0.3936232042,0.563901
 2277\H,-6.7533748589,1.7383488752,-0.4254367685\H,-5.0962095182,3.3687
 274557,-1.3252781728\H,-2.6787648332,2.8684633319,-1.2365513014\H,-0.8
 260137802,1.3316885904,-0.6070578216\H,2.7671282258,1.7098592189,-1.02
 12887095\H,4.8806256823,2.828563177,-1.7012675501\\Version=ES64L-G16Re
 vB.01\State=1-A\HF=-1261.0488141\RMSD=6.677e-09\RMSF=2.522e-05\Dipole=
 0.1422783,-0.1015926,0.0403448\Quadrupole=9.7625096,0.4858898,-10.2483
 993,1.2309356,-2.1089079,-7.0385197\PG=C01 [X(C21H13N1S1)]\\@


 IT WAS AN ACT OF DESPARATION. FOR SIX YEARS I HAD STRUGGLED WITH THE
 BLACKBODY THEORY. I KNEW THE PROBLEM WAS FUNDAMENTAL, AND I KNEW
 THE ANSWER. I HAD TO FIND A THEORETICAL EXPLANATION AT ANY COST,
 EXCEPT FOR THE INVIOLABLITY OF THE TWO LAWS OF THERMODYNAMICS.
   -- MAX PLANCK, 1931
 Job cpu time:       0 days  0 hours 36 minutes 28.5 seconds.
 Elapsed time:       0 days  0 hours  2 minutes 18.8 seconds.
 File lengths (MBytes):  RWF=    105 Int=      0 D2E=      0 Chk=     13 Scr=      2
 Normal termination of Gaussian 16 at Mon Jan 19 14:11:07 2026.
