
                                 *****************
                                 * O   R   C   A *
                                 *****************

           --- An Ab Initio, DFT and Semiempirical electronic structure package ---

                  #######################################################
                  #                        -***-                        #
                  #          Department of theory and spectroscopy      #
                  #               Directorship: Frank Neese             #
                  #        Max Planck Institute fuer Kohlenforschung    #
                  #                Kaiser Wilhelm Platz 1               #
                  #                 D-45470 Muelheim/Ruhr               #
                  #                      Germany                        #
                  #                                                     #
                  #                  All rights reserved                #
                  #                        -***-                        #
                  #######################################################


                         Program Version 4.2.1 -  RELEASE  -


 With contributions from (in alphabetic order):
   Daniel Aravena         : Magnetic Suceptibility
   Michael Atanasov       : Ab Initio Ligand Field Theory (pilot matlab implementation)
   Alexander A. Auer      : GIAO ZORA, VPT2
   Ute Becker             : Parallelization
   Giovanni Bistoni       : ED, misc. LED, open-shell LED, HFLD
   Martin Brehm           : Molecular dynamics
   Dmytro Bykov           : SCF Hessian
   Vijay G. Chilkuri      : MRCI spin determinant printing, contributions to CSF-ICE
   Dipayan Datta          : RHF DLPNO-CCSD density
   Achintya Kumar Dutta   : EOM-CC, STEOM-CC
   Dmitry Ganyushin       : Spin-Orbit,Spin-Spin,Magnetic field MRCI
   Miquel Garcia          : C-PCM Hessian, Gaussian charge scheme
   Yang Guo               : DLPNO-NEVPT2, CIM, IAO-localization
   Andreas Hansen         : Spin unrestricted coupled pair/coupled cluster methods
   Benjamin Helmich-Paris : CASSCF linear response (MC-RPA)
   Lee Huntington         : MR-EOM, pCC
   Robert Izsak           : Overlap fitted RIJCOSX, COSX-SCS-MP3, EOM
   Christian Kollmar      : KDIIS, OOCD, Brueckner-CCSD(T), CCSD density
   Simone Kossmann        : Meta GGA functionals, TD-DFT gradient, OOMP2, MP2 Hessian
   Martin Krupicka        : AUTO-CI
   Lucas Lang             : DCDCAS
   Dagmar Lenk            : GEPOL surface, SMD
   Dimitrios Liakos       : Extrapolation schemes; Compound Job, initial MDCI parallelization
   Dimitrios Manganas     : Further ROCIS development; embedding schemes
   Dimitrios Pantazis     : SARC Basis sets
   Taras Petrenko         : DFT Hessian,TD-DFT gradient, ASA, ECA, R-Raman, ABS, FL, XAS/XES, NRVS
   Peter Pinski           : DLPNO-MP2, DLPNO-MP2 Gradient
   Christoph Reimann      : Effective Core Potentials
   Marius Retegan         : Local ZFS, SOC
   Christoph Riplinger    : Optimizer, TS searches, QM/MM, DLPNO-CCSD(T), (RO)-DLPNO pert. Triples
   Tobias Risthaus        : Range-separated hybrids, TD-DFT gradient, RPA, STAB
   Michael Roemelt        : Original ROCIS implementation
   Masaaki Saitow         : Open-shell DLPNO-CCSD energy and density
   Barbara Sandhoefer     : DKH picture change effects
   Avijit Sen             : IP-ROCIS
   Kantharuban Sivalingam : CASSCF convergence, NEVPT2, FIC-MRCI
   Bernardo de Souza      : ESD, SOC TD-DFT
   Georgi Stoychev        : AutoAux, RI-MP2 NMR
   Willem Van den Heuvel  : Paramagnetic NMR
   Boris Wezisla          : Elementary symmetry handling
   Frank Wennmohs         : Technical directorship


 We gratefully acknowledge several colleagues who have allowed us to
 interface, adapt or use parts of their codes:
   Stefan Grimme, W. Hujo, H. Kruse,             : VdW corrections, initial TS optimization,
                  C. Bannwarth                     DFT functionals, gCP, sTDA/sTD-DF
   Ed Valeev, F. Pavosevic, A. Kumar             : LibInt (2-el integral package), F12 methods
   Garnet Chan, S. Sharma, J. Yang, R. Olivares  : DMRG
   Ulf Ekstrom                                   : XCFun DFT Library
   Mihaly Kallay                                 : mrcc  (arbitrary order and MRCC methods)
   Andreas Klamt, Michael Diedenhofen            : otool_cosmo (COSMO solvation model)
   Jiri Pittner, Ondrej Demel                    : Mk-CCSD
   Frank Weinhold                                : gennbo (NPA and NBO analysis)
   Christopher J. Cramer and Donald G. Truhlar   : smd solvation model
   Lars Goerigk                                  : TD-DFT with DH, B97 family of functionals
   V. Asgeirsson, H. Jonsson                     : NEB implementation
   FAccTs GmbH                                   : IRC, NEB, NEB-TS, Multilevel, MM, QM/MM, CI optimization
   S Lehtola, MJT Oliveira, MAL Marques          : LibXC Library


 Your calculation uses the libint2 library for the computation of 2-el integrals
 For citations please refer to: http://libint.valeyev.net

 Your ORCA version has been built with support for libXC version: 4.2.3
 For citations please refer to: https://tddft.org/programs/libxc/

 This ORCA versions uses:
   CBLAS   interface :  Fast vector & matrix operations
   LAPACKE interface :  Fast linear algebra routines
   SCALAPACK package :  Parallel linear algebra routines


Your calculation utilizes the semiempirical GFN2-xTB method
Please cite in your paper:
C. Bannwarth, Ehlert S., S. Grimme,  J. Chem. Theory Comput., 15, (2019), 1652.
   

----- Orbital basis set information -----
Your calculation utilizes the basis: def2-SVP
   F. Weigend and R. Ahlrichs, Phys. Chem. Chem. Phys. 7, 3297 (2005).

================================================================================
                                        WARNINGS
                       Please study these warnings very carefully!
================================================================================


WARNING: Geometry Optimization
  ===> : Switching off AutoStart
         For restart on a previous wavefunction, please use MOREAD

WARNING: Found dipole moment calculation with XTB calculation
  ===> : Switching off dipole moment calculation


WARNING: otool_xtb not available.
         Trying xtb instead   ... done.
  ===> : Now using xtb as program name.


INFO   : the flag for use of LIBINT has been found!

================================================================================
                                       INPUT FILE
================================================================================
NAME = pre_opt.inp
|  1> ! XTB2 Opt
|  2> * xyz 0 1
|  3> C      6.153127    1.207976   -0.993810
|  4> C      6.176722   -0.047983   -0.383907
|  5> C      4.981583   -0.667824   -0.005603
|  6> C      3.745789   -0.033317   -0.235326
|  7> C      2.472097   -0.677730    0.159968
|  8> N      1.257681   -0.105626   -0.040776
|  9> C      0.247562   -0.897144    0.409252
| 10> C      0.653963   -2.098104    0.967889
| 11> C     -0.247319   -3.026192    1.477430
| 12> C     -1.615467   -2.725934    1.418877
| 13> C     -2.060066   -1.508214    0.854524
| 14> C     -3.429967   -1.213283    0.798669
| 15> C     -3.873768   -0.005910    0.239302
| 16> C     -5.244958    0.291135    0.182503
| 17> C     -5.680413    1.495955   -0.376158
| 18> C     -4.754449    2.411905   -0.881372
| 19> C     -3.386619    2.129388   -0.831424
| 20> C     -2.934874    0.922850   -0.272974
| 21> C     -1.563745    0.632963   -0.219655
| 22> C     -1.117530   -0.574965    0.339827
| 23> S      2.326619   -2.194915    0.907900
| 24> C      3.735678    1.232503   -0.850899
| 25> C      4.933876    1.847385   -1.226983
| 26> H      7.079492    1.685622   -1.285676
| 27> H      7.122496   -0.542601   -0.203704
| 28> H      5.029741   -1.640905    0.465017
| 29> H      0.097404   -3.957125    1.908562
| 30> H     -2.326899   -3.441756    1.812925
| 31> H     -4.150658   -1.923164    1.190421
| 32> H     -5.978177   -0.406691    0.569182
| 33> H     -6.738478    1.720267   -0.417599
| 34> H     -5.097649    3.343343   -1.312847
| 35> H     -2.683678    2.852197   -1.228325
| 36> H     -0.848563    1.346881   -0.613009
| 37> H      2.802876    1.748115   -1.042153
| 38> H      4.916573    2.820899   -1.699794
| 39> *
| 40> 
| 41>                          ****END OF INPUT****
================================================================================

                       *****************************
                       * Geometry Optimization Run *
                       *****************************

Geometry optimization settings:
Update method            Update   .... BFGS
Choice of coordinates    CoordSys .... Z-matrix Internals
Initial Hessian          InHess   .... Almoef's Model

Convergence Tolerances:
Energy Change            TolE     ....  5.0000e-06 Eh
Max. Gradient            TolMAXG  ....  3.0000e-04 Eh/bohr
RMS Gradient             TolRMSG  ....  1.0000e-04 Eh/bohr
Max. Displacement        TolMAXD  ....  4.0000e-03 bohr
RMS Displacement         TolRMSD  ....  2.0000e-03 bohr
Strict Convergence                ....  False
------------------------------------------------------------------------------
                        ORCA OPTIMIZATION COORDINATE SETUP
------------------------------------------------------------------------------

The optimization will be done in new redundant internal coordinates
Making redundant internal coordinates   ...  (new redundants) done
Evaluating the initial hessian          ...  (Almloef) done
Evaluating the coordinates              ...  done
Calculating the B-matrix                .... done
Calculating the G-matrix                .... done
Diagonalizing the G-matrix              .... done
Small eigenvalue found = 3.300e-03
Small eigenvalue found = 1.999e-02
Small eigenvalue found = 2.140e-02
Small eigenvalue found = 2.917e-02
The first mode is                       ....  103
The number of degrees of freedom        ....  102

    -----------------------------------------------------------------
                    Redundant Internal Coordinates


    -----------------------------------------------------------------
         Definition                    Initial Value    Approx d2E/dq
    -----------------------------------------------------------------
      1. B(C   1,C   0)                  1.3964         0.610247   
      2. B(C   2,C   1)                  1.3985         0.605690   
      3. B(C   3,C   2)                  1.4080         0.584746   
      4. B(C   4,C   3)                  1.4812         0.447001   
      5. B(N   5,C   4)                  1.3574         0.630901   
      6. B(C   6,N   5)                  1.3599         0.624994   
      7. B(C   7,C   6)                  1.3855         0.635268   
      8. B(C   8,C   7)                  1.3904         0.623816   
      9. B(C   9,C   8)                  1.4019         0.598002   
     10. B(C  10,C   9)                  1.4139         0.572360   
     11. B(C  11,C  10)                  1.4024         0.596968   
     12. B(C  12,C  11)                  1.4027         0.596290   
     13. B(C  13,C  12)                  1.4041         0.593158   
     14. B(C  14,C  13)                  1.3976         0.607571   
     15. B(C  15,C  14)                  1.3970         0.608930   
     16. B(C  16,C  15)                  1.3976         0.607607   
     17. B(C  17,C  16)                  1.4042         0.593120   
     18. B(C  17,C  12)                  1.4165         0.566786   
     19. B(C  18,C  17)                  1.4025         0.596859   
     20. B(C  19,C  18)                  1.4040         0.593473   
     21. B(C  19,C  10)                  1.4228         0.553956   
     22. B(C  19,C   6)                  1.4043         0.592793   
     23. B(S  20,C   7)                  1.6765         0.587987   
     24. B(S  20,C   4)                  1.6978         0.543854   
     25. B(C  21,C   3)                  1.4076         0.585682   
     26. B(C  22,C  21)                  1.3983         0.606069   
     27. B(C  22,C   0)                  1.3963         0.610396   
     28. B(H  23,C   0)                  1.0824         0.370362   
     29. B(H  24,C   1)                  1.0824         0.370284   
     30. B(H  25,C   2)                  1.0820         0.370862   
     31. B(H  26,C   8)                  1.0823         0.370449   
     32. B(H  27,C   9)                  1.0834         0.368903   
     33. B(H  28,C  11)                  1.0848         0.367042   
     34. B(H  29,C  13)                  1.0836         0.368727   
     35. B(H  30,C  14)                  1.0824         0.370330   
     36. B(H  31,C  15)                  1.0824         0.370331   
     37. B(H  32,C  16)                  1.0836         0.368716   
     38. B(H  33,C  18)                  1.0844         0.367605   
     39. B(H  34,C  21)                  1.0828         0.369691   
     40. B(H  35,C  22)                  1.0824         0.370302   
     41. A(C   1,C   0,H  23)          120.0154         0.353641   
     42. A(C  22,C   0,H  23)          120.0147         0.353656   
     43. A(C   1,C   0,C  22)          119.9699         0.431617   
     44. A(C   0,C   1,H  24)          119.8992         0.353629   
     45. A(C   2,C   1,H  24)          119.9443         0.353180   
     46. A(C   0,C   1,C   2)          120.1564         0.431017   
     47. A(C   1,C   2,C   3)          120.4112         0.427729   
     48. A(C   3,C   2,H  25)          121.0179         0.351177   
     49. A(C   1,C   2,H  25)          118.5710         0.353273   
     50. A(C   4,C   3,C  21)          120.1184         0.405334   
     51. A(C   2,C   3,C   4)          121.0067         0.405220   
     52. A(C   2,C   3,C  21)          118.8749         0.425163   
     53. A(N   5,C   4,S  20)          111.4163         0.445954   
     54. A(C   3,C   4,N   5)          123.1292         0.408057   
     55. A(C   3,C   4,S  20)          125.4545         0.421912   
     56. A(C   4,N   5,C   6)          111.7342         0.430372   
     57. A(N   5,C   6,C   7)          114.8392         0.433742   
     58. A(N   5,C   6,C  19)          124.9000         0.428384   
     59. A(C   7,C   6,C  19)          120.2609         0.432465   
     60. A(C   8,C   7,S  20)          128.4094         0.454393   
     61. A(C   6,C   7,C   8)          122.4262         0.436454   
     62. A(C   6,C   7,S  20)          109.1644         0.455901   
     63. A(C   9,C   8,H  26)          120.7770         0.352444   
     64. A(C   7,C   8,H  26)          120.9078         0.354976   
     65. A(C   7,C   8,C   9)          118.3151         0.431732   
     66. A(C  10,C   9,H  27)          120.5129         0.349597   
     67. A(C   8,C   9,H  27)          118.9555         0.352195   
     68. A(C   8,C   9,C  10)          120.5316         0.425118   
     69. A(C   9,C  10,C  19)          120.0679         0.419348   
     70. A(C   9,C  10,C  11)          120.2780         0.424987   
     71. A(C  11,C  10,C  19)          119.6541         0.422510   
     72. A(C  10,C  11,H  28)          119.7986         0.351791   
     73. A(C  10,C  11,C  12)          120.3948         0.428116   
     74. A(C  12,C  11,H  28)          119.8066         0.351723   
     75. A(C  11,C  12,C  13)          120.4763         0.427625   
     76. A(C  13,C  12,C  17)          119.5989         0.423758   
     77. A(C  11,C  12,C  17)          119.9248         0.424157   
     78. A(C  12,C  13,C  14)          120.1851         0.429064   
     79. A(C  14,C  13,H  29)          119.1430         0.353114   
     80. A(C  12,C  13,H  29)          120.6719         0.351682   
     81. A(C  13,C  14,C  15)          120.2154         0.431090   
     82. A(C  15,C  14,H  30)          119.8817         0.353507   
     83. A(C  13,C  14,H  30)          119.9029         0.353373   
     84. A(C  14,C  15,C  16)          120.2149         0.431095   
     85. A(C  14,C  15,H  31)          119.8823         0.353507   
     86. A(C  16,C  15,H  31)          119.9029         0.353377   
     87. A(C  15,C  16,H  32)          119.1423         0.353115   
     88. A(C  17,C  16,H  32)          120.6739         0.351677   
     89. A(C  15,C  16,C  17)          120.1838         0.429064   
     90. A(C  16,C  17,C  18)          120.4816         0.427693   
     91. A(C  12,C  17,C  18)          119.9165         0.424229   
     92. A(C  12,C  17,C  16)          119.6019         0.423753   
     93. A(C  19,C  18,H  33)          120.0901         0.351533   
     94. A(C  17,C  18,H  33)          119.6647         0.351871   
     95. A(C  17,C  18,C  19)          120.2452         0.427739   
     96. A(C  10,C  19,C  18)          119.8647         0.422068   
     97. A(C   6,C  19,C  18)          121.7371         0.427215   
     98. A(C   6,C  19,C  10)          118.3982         0.421981   
     99. A(C   4,S  20,C   7)           92.8459         0.468090   
    100. A(C  22,C  21,H  34)          118.7688         0.353122   
    101. A(C   3,C  21,H  34)          120.7726         0.351084   
    102. A(C   3,C  21,C  22)          120.4586         0.427900   
    103. A(C   0,C  22,C  21)          120.1290         0.431085   
    104. A(C  21,C  22,H  35)          119.9534         0.353220   
    105. A(C   0,C  22,H  35)          119.9176         0.353646   
    106. D(H  24,C   1,C   0,H  23)      0.0002         0.025721   
    107. D(C   2,C   1,C   0,H  23)   -179.9999         0.025721   
    108. D(C   2,C   1,C   0,C  22)     -0.0002         0.025721   
    109. D(H  24,C   1,C   0,C  22)    179.9999         0.025721   
    110. D(C   3,C   2,C   1,C   0)      0.0000         0.025317   
    111. D(C   3,C   2,C   1,H  24)    179.9999         0.025317   
    112. D(H  25,C   2,C   1,H  24)     -0.0002         0.025317   
    113. D(H  25,C   2,C   1,C   0)    179.9999         0.025317   
    114. D(C  21,C   3,C   2,C   1)      0.0002         0.023510   
    115. D(C  21,C   3,C   2,H  25)   -179.9997         0.023510   
    116. D(C   4,C   3,C   2,C   1)    179.9998         0.023510   
    117. D(C   4,C   3,C   2,H  25)     -0.0000         0.023510   
    118. D(S  20,C   4,C   3,C   2)      0.0013         0.013624   
    119. D(N   5,C   4,C   3,C   2)   -179.9986         0.013624   
    120. D(N   5,C   4,C   3,C  21)      0.0010         0.013624   
    121. D(S  20,C   4,C   3,C  21)   -179.9991         0.013624   
    122. D(C   6,N   5,C   4,S  20)      0.0000         0.029279   
    123. D(C   6,N   5,C   4,C   3)    179.9999         0.029279   
    124. D(C   7,C   6,N   5,C   4)     -0.0001         0.028692   
    125. D(C  19,C   6,N   5,C   4)   -179.9999         0.028692   
    126. D(S  20,C   7,C   6,C  19)    180.0000         0.028012   
    127. D(S  20,C   7,C   6,N   5)      0.0001         0.028012   
    128. D(C   8,C   7,C   6,C  19)     -0.0001         0.028012   
    129. D(C   8,C   7,C   6,N   5)   -179.9999         0.028012   
    130. D(H  26,C   8,C   7,S  20)      0.0001         0.026948   
    131. D(H  26,C   8,C   7,C   6)   -179.9999         0.026948   
    132. D(C   9,C   8,C   7,S  20)    179.9999         0.026948   
    133. D(C   9,C   8,C   7,C   6)     -0.0001         0.026948   
    134. D(H  27,C   9,C   8,C   7)   -179.9998         0.024644   
    135. D(C  10,C   9,C   8,H  26)    180.0000         0.024644   
    136. D(C  10,C   9,C   8,C   7)      0.0003         0.024644   
    137. D(H  27,C   9,C   8,H  26)     -0.0001         0.024644   
    138. D(C  19,C  10,C   9,H  27)    179.9999         0.022480   
    139. D(C  19,C  10,C   9,C   8)     -0.0002         0.022480   
    140. D(C  11,C  10,C   9,H  27)     -0.0002         0.022480   
    141. D(C  11,C  10,C   9,C   8)    179.9997         0.022480   
    142. D(H  28,C  11,C  10,C  19)   -179.9997         0.024554   
    143. D(H  28,C  11,C  10,C   9)      0.0004         0.024554   
    144. D(C  12,C  11,C  10,C  19)     -0.0001         0.024554   
    145. D(C  12,C  11,C  10,C   9)   -180.0000         0.024554   
    146. D(C  17,C  12,C  11,H  28)    179.9996         0.024495   
    147. D(C  17,C  12,C  11,C  10)      0.0000         0.024495   
    148. D(C  13,C  12,C  11,H  28)     -0.0003         0.024495   
    149. D(C  13,C  12,C  11,C  10)   -179.9999         0.024495   
    150. D(H  29,C  13,C  12,C  17)   -180.0000         0.024226   
    151. D(H  29,C  13,C  12,C  11)     -0.0001         0.024226   
    152. D(C  14,C  13,C  12,C  17)      0.0002         0.024226   
    153. D(C  14,C  13,C  12,C  11)   -179.9999         0.024226   
    154. D(H  30,C  14,C  13,H  29)      0.0003         0.025483   
    155. D(H  30,C  14,C  13,C  12)   -179.9999         0.025483   
    156. D(C  15,C  14,C  13,H  29)   -179.9999         0.025483   
    157. D(C  15,C  14,C  13,C  12)     -0.0001         0.025483   
    158. D(H  31,C  15,C  14,H  30)     -0.0001         0.025604   
    159. D(H  31,C  15,C  14,C  13)   -179.9999         0.025604   
    160. D(C  16,C  15,C  14,H  30)    179.9996         0.025604   
    161. D(C  16,C  15,C  14,C  13)     -0.0002         0.025604   
    162. D(H  32,C  16,C  15,H  31)     -0.0001         0.025486   
    163. D(H  32,C  16,C  15,C  14)   -179.9998         0.025486   
    164. D(C  17,C  16,C  15,H  31)   -179.9999         0.025486   
    165. D(C  17,C  16,C  15,C  14)      0.0004         0.025486   
    166. D(C  18,C  17,C  12,C  11)      0.0001         0.022026   
    167. D(C  16,C  17,C  12,C  13)     -0.0000         0.022026   
    168. D(C  16,C  17,C  12,C  11)   -179.9999         0.022026   
    169. D(C  18,C  17,C  16,H  32)     -0.0000         0.024222   
    170. D(C  18,C  17,C  16,C  15)    179.9998         0.024222   
    171. D(C  12,C  17,C  16,H  32)    179.9999         0.024222   
    172. D(C  12,C  17,C  16,C  15)     -0.0003         0.024222   
    173. D(C  18,C  17,C  12,C  13)    180.0000         0.022026   
    174. D(H  33,C  18,C  17,C  16)      0.0002         0.024545   
    175. D(H  33,C  18,C  17,C  12)   -179.9998         0.024545   
    176. D(C  19,C  18,C  17,C  16)    180.0000         0.024545   
    177. D(C  19,C  18,C  17,C  12)     -0.0000         0.024545   
    178. D(C  10,C  19,C  18,H  33)    179.9997         0.024253   
    179. D(C  10,C  19,C  18,C  17)     -0.0001         0.024253   
    180. D(C   6,C  19,C  18,H  33)     -0.0003         0.024253   
    181. D(C   6,C  19,C  18,C  17)    179.9999         0.024253   
    182. D(C  18,C  19,C  10,C  11)      0.0001         0.021003   
    183. D(C  18,C  19,C  10,C   9)   -180.0000         0.021003   
    184. D(C   6,C  19,C  10,C  11)   -179.9999         0.021003   
    185. D(C   6,C  19,C  10,C   9)      0.0000         0.021003   
    186. D(C  18,C  19,C   6,C   7)   -179.9999         0.024194   
    187. D(C  18,C  19,C   6,N   5)     -0.0001         0.024194   
    188. D(C  10,C  19,C   6,C   7)      0.0001         0.024194   
    189. D(C  10,C  19,C   6,N   5)    179.9999         0.024194   
    190. D(C   4,S  20,C   7,C   8)    179.9999         0.006714   
    191. D(C   4,S  20,C   7,C   6)     -0.0001         0.006714   
    192. D(C   7,S  20,C   4,N   5)      0.0001         0.005922   
    193. D(C   7,S  20,C   4,C   3)   -179.9999         0.005922   
    194. D(H  34,C  21,C   3,C   4)      0.0003         0.023589   
    195. D(H  34,C  21,C   3,C   2)    179.9999         0.023589   
    196. D(C  22,C  21,C   3,C   4)   -179.9999         0.023589   
    197. D(C  22,C  21,C   3,C   2)     -0.0003         0.023589   
    198. D(H  35,C  22,C  21,H  34)     -0.0001         0.025350   
    199. D(H  35,C  22,C  21,C   3)   -179.9999         0.025350   
    200. D(C   0,C  22,C  21,H  34)    179.9999         0.025350   
    201. D(C   0,C  22,C  21,C   3)      0.0001         0.025350   
    202. D(H  35,C  22,C   0,H  23)     -0.0002         0.025734   
    203. D(H  35,C  22,C   0,C   1)   -179.9999         0.025734   
    204. D(C  21,C  22,C   0,H  23)    179.9999         0.025734   
    205. D(C  21,C  22,C   0,C   1)      0.0001         0.025734   
    -----------------------------------------------------------------

Number of atoms                         .... 36
Number of degrees of freedom            .... 205

         *************************************************************
         *                GEOMETRY OPTIMIZATION CYCLE   1            *
         *************************************************************
      -----------------------------------------------------------      
     |                   =====================                   |     
     |                           x T B                           |     
     |                   =====================                   |     
     |                         S. Grimme                         |     
     |          Mulliken Center for Theoretical Chemistry        |     
     |                    University of Bonn                     |     
      -----------------------------------------------------------      

   * xtb version 6.2.3 (830e466) compiled by 'ehlert@majestix' on 2020-03-16

   xtb is free software: you can redistribute it and/or modify it under
   the terms of the GNU Lesser General Public License as published by
   the Free Software Foundation, either version 3 of the License, or
   (at your option) any later version.
   
   xtb is distributed in the hope that it will be useful,
   but WITHOUT ANY WARRANTY; without even the implied warranty of
   MERCHANTABILITY or FITNESS FOR A PARTICULAR PURPOSE.  See the
   GNU Lesser General Public License for more details.
   
   Cite this work as:
   * S. Grimme, C. Bannwarth, P. Shushkov, J. Chem. Theory Comput., 2017,
     13, 1989-2009. DOI: 10.1021/acs.jctc.7b00118
   * C. Bannwarth, S. Ehlert and S. Grimme., J. Chem. Theory Comput., 2019,
     15, 1652-1671. DOI: 10.1021/acs.jctc.8b01176
   * P. Pracht, E. Caldeweyher, S. Ehlert, S. Grimme, ChemRxiv, 2019, preprint.
     DOI: 10.26434/chemrxiv.8326202.v1
   
   for DFT-D4:
   * E. Caldeweyher, C. Bannwarth and S. Grimme, J. Chem. Phys., 2017,
     147, 034112. DOI: 10.1063/1.4993215
   * E. Caldeweyher, S. Ehlert, A. Hansen, H. Neugebauer, S. Spicher,
     C. Bannwarth and S. Grimme, J. Chem. Phys., 2019, 150, 154122.
     DOI: 10.1063/1.5090222
   
   for sTDA-xTB:
   * S. Grimme and C. Bannwarth, J. Chem. Phys., 2016, 145, 054103.
     DOI: 10.1063/1.4959605
   
   in the mass-spec context:
   * V. Asgeirsson, C. Bauer and S. Grimme, Chem. Sci., 2017, 8, 4879.
     DOI: 10.1039/c7sc00601b
   
   for metadynamics refer to:
   * S. Grimme, J. Chem. Theory Comput., 2019, 155, 2847-2862
     DOI: 10.1021/acs.jctc.9b00143
   
   with help from (in alphabetical order)
   C. Bannwarth, F. Bohle, G. Brandenburg, E. Caldeweyher, M. Checinski,
   S. Dohm, S. Ehlert, S. Ehrlich, F. März, H. Neugebauer, J. Pisarek,
   P. Pracht, P. Shushkov, and S. Spicher.
   
 * started run on 2026/01/19 at 14:08:21.796     

           -------------------------------------------------
          |                Calculation Setup                |
           -------------------------------------------------

          program call               : /appl/orca_4.2.1/orca_4_2_1_linux_x86-64_openmpi314/xtb pre_opt_XTB.xyz --grad -c 0 -u 0 -P 1 --namespace pre_opt
          hostname                   : cnode9
          calculation namespace      : pre_opt
          coordinate file            : pre_opt_XTB.xyz
          omp threads                :                     1
          number of atoms            :                    36
          number of electrons        :                   108
          charge                     :                     0
          spin                       :                   0.0
          first test random number   :      0.98791867493330

########################################################################
[WARNING] Please study the warnings concerning your input carefully
-2- prog_main: XTBPATH is not set, using XTBHOME instead
-1- prog_main: XTBHOME is not set, using HOME instead
########################################################################
           ------------------------------------------------- 
          |                 G F N 2 - x T B                 |
          | Geometry, Frequencies, Noncovalent interactions |
          |            JCTC 2019 parametrisation            |
           ------------------------------------------------- 
             k(s)              :                1.8500
             k(p)              :                2.2300
             k(d)              :                2.2300
             k(f)              :                2.0000
             kEN (H0ij)        :               -2.0000
             D4 a1             :                0.5200
             D4 a2             :                5.0000
             D4 s6             :                1.0000
             D4 s8             :                2.7000
             D4 s9             :                5.0000
             alphaj            :                2.0000

  Z AO/shell   Hii/eV     exponent
  1     Wed Apr 25 08:07:45 CEST 2018   EN: 2.200 GM2: 0.406  GM3: 0.0800  RAES: 1.40
     1s    -10.707211    1.230000
  6     Wed Apr 25 08:07:45 CEST 2018   EN: 2.550 GM2: 0.538  GM3: 0.1500  RAES: 3.00
     2s    -13.970922    2.096432
     2p    -10.063292    1.800000
  7     Wed Apr 25 08:07:45 CEST 2018   EN: 3.040 GM2: 0.461  GM3:-0.0640  RAES: 1.90
     2s    -16.686243    2.339881
     2p    -12.523956    2.014332
 16     Tue Apr 24 11:44:34 CEST 2018   EN: 2.580 GM2: 0.340  GM3:-0.0502  RAES: 3.10
     3s    -20.029654    1.981333
     3p    -11.377694    2.025643
     3d     -0.420282    1.702555

           ------------------------------------------------- 
          |        Self-Consistent Charge Iterations        |
           ------------------------------------------------- 

          ...................................................
          :                      SETUP                      :
          :.................................................:
          :  # basis functions                 111          :
          :  # atomic orbitals                 110          :
          :  # shells                           60          :
          :  # electrons                       108          :
          :  max. iterations                   250          :
          :  Hamiltonian                  GFN2-xTB          :
          :  restarted?                      false          :
          :  GBSA solvation                  false          :
          :  PC potential                    false          :
          :  electronic temp.          300.0000000     K    :
          :  accuracy                    1.0000000          :
          :  -> integral cutoff          0.2500000E+02      :
          :  -> integral neglect         0.1000000E-07      :
          :  -> SCF convergence          0.1000000E-05 Eh   :
          :  -> wf. convergence          0.1000000E-03 e    :
          :  Broyden damping             0.4000000          :
          ...................................................

 iter      E             dE          RMSdq      gap      omega  full diag
   1    -58.7463961 -0.587464E+02  0.447E+00    1.91       0.0  T
   2    -58.7741729 -0.277769E-01  0.261E+00    1.89       1.0  T
   3    -58.7519300  0.222430E-01  0.994E-01    1.91       1.0  T
   4    -58.7763317 -0.244018E-01  0.386E-01    1.88       1.0  T
   5    -58.7796329 -0.330112E-02  0.209E-01    1.88       1.0  T
   6    -58.7809639 -0.133105E-02  0.683E-02    1.88       1.0  T
   7    -58.7810486 -0.847375E-04  0.250E-02    1.88       1.0  T
   8    -58.7810547 -0.606152E-05  0.122E-02    1.88       1.4  T
   9    -58.7810566 -0.191558E-05  0.665E-03    1.88       2.5  T
  10    -58.7810573 -0.715124E-06  0.212E-03    1.88       7.9  T
  11    -58.7810574 -0.762281E-07  0.111E-03    1.88      15.0  T
  12    -58.7810574 -0.113450E-07  0.496E-04    1.88      33.6  T
  13    -58.7810574 -0.280286E-08  0.241E-04    1.88      69.2  T

   *** convergence criteria satisfied after 13 iterations ***

         #    Occupation            Energy/Eh            Energy/eV
      -------------------------------------------------------------
         1        2.0000           -0.7406411             -20.1539
       ...           ...                  ...                  ...
        48        2.0000           -0.4153121             -11.3012
        49        2.0000           -0.4147344             -11.2855
        50        2.0000           -0.4091645             -11.1339
        51        2.0000           -0.3928367             -10.6896
        52        2.0000           -0.3906828             -10.6310
        53        2.0000           -0.3843803             -10.4595
        54        2.0000           -0.3591906              -9.7741 (HOMO)
        55                         -0.2899821              -7.8908 (LUMO)
        56                         -0.2708748              -7.3709
        57                         -0.2332263              -6.3464
        58                         -0.2318298              -6.3084
        59                         -0.2209049              -6.0111
       ...                                ...                  ...
       110                          0.7448650              20.2688
      -------------------------------------------------------------
                  HL-Gap            0.0692085 Eh            1.8833 eV
             Fermi-level           -0.3245864 Eh           -8.8324 eV

 SCC (total)                   0 d,  0 h,  0 min,  0.085 sec
 SCC setup                      ...        0 min,  0.001 sec (  0.819%)
 Dispersion                     ...        0 min,  0.001 sec (  0.756%)
 integral evaluation            ...        0 min,  0.032 sec ( 38.316%)
 zeroth order Hamiltonian       ...        0 min,  0.000 sec (  0.417%)
 iterations                     ...        0 min,  0.026 sec ( 30.907%)
 molecular gradient             ...        0 min,  0.024 sec ( 28.537%)
 printout                       ...        0 min,  0.000 sec (  0.195%)

         :::::::::::::::::::::::::::::::::::::::::::::::::::::
         ::                     SUMMARY                     ::
         :::::::::::::::::::::::::::::::::::::::::::::::::::::
         :: total energy             -57.768692832072 Eh    ::
         :: gradient norm              0.136598839010 Eh/a0 ::
         :: HOMO-LUMO gap              1.883258541278 eV    ::
         ::.................................................::
         :: SCC energy               -58.781057430767 Eh    ::
         :: -> isotropic ES            0.011812265267 Eh    ::
         :: -> anisotropic ES          0.005092661663 Eh    ::
         :: -> anisotropic XC          0.036015294471 Eh    ::
         :: -> dispersion             -0.045672344590 Eh    ::
         :: repulsion energy           1.012876571070 Eh    ::
         :: add. restraining           0.000000000000 Eh    ::
         :::::::::::::::::::::::::::::::::::::::::::::::::::::

           -------------------------------------------------
          |                Property Printout                |
           -------------------------------------------------

    * Orbital Energies and Occupations

         #    Occupation            Energy/Eh            Energy/eV
      -------------------------------------------------------------
         1        2.0000           -0.7406411             -20.1539
       ...           ...                  ...                  ...
        42        2.0000           -0.4387872             -11.9400
        43        2.0000           -0.4342775             -11.8173
        44        2.0000           -0.4334358             -11.7944
        45        2.0000           -0.4287941             -11.6681
        46        2.0000           -0.4207873             -11.4502
        47        2.0000           -0.4182709             -11.3817
        48        2.0000           -0.4153121             -11.3012
        49        2.0000           -0.4147344             -11.2855
        50        2.0000           -0.4091645             -11.1339
        51        2.0000           -0.3928367             -10.6896
        52        2.0000           -0.3906828             -10.6310
        53        2.0000           -0.3843803             -10.4595
        54        2.0000           -0.3591906              -9.7741 (HOMO)
        55                         -0.2899821              -7.8908 (LUMO)
        56                         -0.2708748              -7.3709
        57                         -0.2332263              -6.3464
        58                         -0.2318298              -6.3084
        59                         -0.2209049              -6.0111
        60                         -0.1996612              -5.4331
        61                         -0.1944326              -5.2908
        62                         -0.1828549              -4.9757
        63                         -0.1725431              -4.6951
        64                         -0.1246159              -3.3910
        65                         -0.1050888              -2.8596
       ...                                ...                  ...
       110                          0.7448650              20.2688
      -------------------------------------------------------------
                  HL-Gap            0.0692085 Eh            1.8833 eV
             Fermi-level           -0.3245864 Eh           -8.8324 eV

     #   Z        covCN         q      C6AA      α(0)
     1   6 C      2.910    -0.027    28.668     8.780
     2   6 C      2.909    -0.028    28.707     8.786
     3   6 C      2.913    -0.031    28.772     8.796
     4   6 C      2.977     0.010    27.799     8.649
     5   6 C      2.970     0.104    25.692     8.314
     6   7 N      1.982    -0.275    27.949     7.840
     7   6 C      3.248     0.077    25.327     8.149
     8   6 C      2.996     0.023    27.484     8.600
     9   6 C      2.939    -0.045    29.115     8.849
    10   6 C      2.919    -0.042    29.040     8.837
    11   6 C      2.979     0.009    27.802     8.649
    12   6 C      2.924    -0.044    29.093     8.845
    13   6 C      2.981     0.017    27.629     8.622
    14   6 C      2.918    -0.037    28.918     8.818
    15   6 C      2.909    -0.031    28.763     8.794
    16   6 C      2.909    -0.031    28.762     8.794
    17   6 C      2.918    -0.036    28.890     8.814
    18   6 C      2.981     0.017    27.625     8.622
    19   6 C      2.922    -0.038    28.934     8.821
    20   6 C      2.983     0.003    27.947     8.672
    21  16 S      2.397    -0.041   142.742    20.108
    22   6 C      2.914    -0.025    28.619     8.772
    23   6 C      2.909    -0.028    28.701     8.785
    24   1 H      0.925     0.036     2.503     2.474
    25   1 H      0.925     0.037     2.492     2.469
    26   1 H      0.925     0.041     2.435     2.440
    27   1 H      0.925     0.037     2.493     2.469
    28   1 H      0.925     0.038     2.481     2.463
    29   1 H      0.925     0.035     2.523     2.484
    30   1 H      0.925     0.032     2.560     2.502
    31   1 H      0.925     0.030     2.580     2.512
    32   1 H      0.925     0.031     2.575     2.509
    33   1 H      0.925     0.035     2.520     2.483
    34   1 H      0.925     0.053     2.288     2.365
    35   1 H      0.925     0.056     2.251     2.346
    36   1 H      0.925     0.039     2.469     2.457

 Mol. C6AA /au·bohr⁶  :      22236.849139
 Mol. C8AA /au·bohr⁸  :     606638.817817
 Mol. α(0) /au        :        242.690057


Wiberg/Mayer (AO) data.
largest (>0.10) Wiberg bond orders for each atom
          total WBO             WBO to atom ...
     1  C   3.968        C    2 1.430    C   23 1.430    H   24 0.971
     2  C   3.991        C    3 1.455    C    1 1.430    H   25 0.971    C   22 0.106
     3  C   3.981        C    2 1.455    C    4 1.372    H   26 0.967    C   23 0.106
     4  C   3.985        C    3 1.372    C   22 1.366    C    5 1.088
     5  C   3.938        N    6 1.492    S   21 1.171    C    4 1.088
     6  N   3.071        C    5 1.492    C    7 1.276    S   21 0.148
     7  C   3.975        C    8 1.309    N    6 1.276    C   20 1.181
     8  C   3.943        C    7 1.309    C    9 1.286    S   21 1.154
     9  C   3.973        C   10 1.560    C    8 1.286    H   27 0.970
    10  C   3.971        C    9 1.560    C   11 1.245    H   28 0.969
    11  C   3.990        C   12 1.377    C   10 1.245    C   20 1.202
    12  C   3.976        C   11 1.377    C   13 1.345    H   29 0.967    C   19 0.140
    13  C   3.988        C   12 1.345    C   14 1.279    C   18 1.200
    14  C   3.980        C   15 1.534    C   13 1.279    H   30 0.970    C   17 0.132
    15  C   3.980        C   14 1.534    C   16 1.341    H   31 0.972
    16  C   3.976        C   17 1.533    C   15 1.341    H   32 0.972
    17  C   3.985        C   16 1.533    C   18 1.282    H   33 0.970    C   14 0.132
    18  C   3.985        C   19 1.339    C   17 1.282    C   13 1.200
    19  C   3.987        C   20 1.395    C   18 1.339    H   34 0.966    C   12 0.140
    20  C   3.986        C   19 1.395    C   11 1.202    C    7 1.181
    21  S   2.665        C    5 1.171    C    8 1.154    N    6 0.148
    22  C   3.979        C   23 1.456    C    4 1.366    H   35 0.968    C    2 0.106
    23  C   3.991        C   22 1.456    C    1 1.430    H   36 0.971    C    3 0.106
    24  H   0.998        C    1 0.971
    25  H   0.998        C    2 0.971
    26  H   0.998        C    3 0.967
    27  H   0.998        C    9 0.970
    28  H   0.998        C   10 0.969
    29  H   0.998        C   12 0.967
    30  H   0.998        C   14 0.970
    31  H   0.999        C   15 0.972
    32  H   0.999        C   16 0.972
    33  H   0.998        C   17 0.970
    34  H   0.996        C   19 0.966
    35  H   0.997        C   22 0.968
    36  H   0.998        C   23 0.971

molecular dipole:
                 x           y           z       tot (Debye)
 q only:        0.185       0.117      -0.069
   full:        0.025      -0.071       0.033       0.210
molecular quadrupole (traceless):
                xx          xy          yy          xz          yz          zz
 q only:        8.990       1.617      -1.902      -1.941      -3.530      -7.088
  q+dip:       13.541       2.567       0.769      -3.359      -9.970     -14.310
   full:        9.459       2.951      -1.277      -2.727      -4.761      -8.182


           -------------------------------------------------
          | TOTAL ENERGY              -57.768692832072 Eh   |
          | GRADIENT NORM               0.136598839010 Eh/α |
          | HOMO-LUMO GAP               1.883258541278 eV   |
           -------------------------------------------------

------------------------------------------------------------------------
 * finished run on 2026/01/19 at 14:08:22.239     
------------------------------------------------------------------------
 total:
 * wall-time:     0 d,  0 h,  0 min,  0.443 sec
 *  cpu-time:     0 d,  0 h,  0 min,  0.148 sec
 * ratio c/w:     0.335 speedup
 SCF:
 * wall-time:     0 d,  0 h,  0 min,  0.085 sec
 *  cpu-time:     0 d,  0 h,  0 min,  0.085 sec
 * ratio c/w:     0.998 speedup


-------------------------   --------------------
FINAL SINGLE POINT ENERGY         0.000000000000
-------------------------   --------------------

------------------------------------------------------------------------------
                         ORCA GEOMETRY RELAXATION STEP
------------------------------------------------------------------------------

Reading the OPT-File                    .... done
Getting information on internals        .... done
Copying old internal coords+grads       .... done
Making the new internal coordinates     .... (new redundants).... done
Validating the new internal coordinates .... (new redundants).... done
Calculating the B-matrix                .... done
Calculating the G,G- and P matrices     .... done
Transforming gradient to internals      .... done
Projecting the internal gradient        .... done
Number of atoms                         ....  36
Number of internal coordinates          .... 205
Current Energy                          ....     0.000000000 Eh
Current gradient norm                   ....     0.136598839 Eh/bohr
Maximum allowed component of the step   ....  0.300
Current trust radius                    ....  0.300
Evaluating the initial hessian          ....  (Almloef) done
Projecting the Hessian                  .... done
Forming the augmented Hessian           .... done
Diagonalizing the augmented Hessian     .... done
Last element of RFO vector              ....  0.984092247
Lowest eigenvalues of augmented Hessian:
 -0.018298896  0.013623838  0.015397983  0.015990297  0.020548054
Length of the computed step             ....  0.180530063
The final length of the internal step   ....  0.180530063
Converting the step to cartesian space:
 Initial RMS(Int)=    0.0126087665
Transforming coordinates:
 Iter   0:  RMS(Cart)=    0.0519748531 RMS(Int)=    0.7601919780
 Iter   1:  RMS(Cart)=    0.0009037269 RMS(Int)=    0.0001406108
 Iter   2:  RMS(Cart)=    0.0000162290 RMS(Int)=    0.0000041194
 Iter   3:  RMS(Cart)=    0.0000003460 RMS(Int)=    0.0000000772
 Iter   4:  RMS(Cart)=    0.0000000040 RMS(Int)=    0.0000000020
done
Storing new coordinates                 .... done

                                .--------------------.
          ----------------------|Geometry convergence|-------------------------
          Item                value                   Tolerance       Converged
          ---------------------------------------------------------------------
          RMS gradient        0.0071409247            0.0001000000      NO
          MAX gradient        0.0438671215            0.0003000000      NO
          RMS step            0.0126087665            0.0020000000      NO
          MAX step            0.0701574058            0.0040000000      NO
          ........................................................
          Max(Bonds)      0.0371      Max(Angles)    2.49
          Max(Dihed)        0.00      Max(Improp)    0.00
          ---------------------------------------------------------------------

The optimization has not yet converged - more geometry cycles are needed


    ---------------------------------------------------------------------------
                         Redundant Internal Coordinates
                            (Angstroem and degrees)

        Definition                    Value    dE/dq     Step     New-Value
    ----------------------------------------------------------------------------
     1. B(C   1,C   0)                1.3964  0.010941 -0.0091    1.3873   
     2. B(C   2,C   1)                1.3985  0.016621 -0.0141    1.3844   
     3. B(C   3,C   2)                1.4080  0.015592 -0.0138    1.3943   
     4. B(C   4,C   3)                1.4812  0.028958 -0.0329    1.4482   
     5. B(N   5,C   4)                1.3574  0.043867 -0.0371    1.3202   
     6. B(C   6,N   5)                1.3599  0.012570 -0.0108    1.3492   
     7. B(C   7,C   6)                1.3855 -0.015420  0.0142    1.3997   
     8. B(C   8,C   7)                1.3904 -0.009755  0.0081    1.3985   
     9. B(C   9,C   8)                1.4019  0.030498 -0.0269    1.3750   
    10. B(C  10,C   9)                1.4139 -0.007504  0.0059    1.4198   
    11. B(C  11,C  10)                1.4024  0.008181 -0.0071    1.3953   
    12. B(C  12,C  11)                1.4027  0.003752 -0.0031    1.3996   
    13. B(C  13,C  12)                1.4041 -0.004786  0.0044    1.4086   
    14. B(C  14,C  13)                1.3976  0.025179 -0.0216    1.3760   
    15. B(C  15,C  14)                1.3970 -0.003494  0.0024    1.3994   
    16. B(C  16,C  15)                1.3976  0.024845 -0.0213    1.3763   
    17. B(C  17,C  16)                1.4042 -0.004023  0.0038    1.4079   
    18. B(C  17,C  12)                1.4165 -0.006739  0.0069    1.4234   
    19. B(C  18,C  17)                1.4025  0.003204 -0.0027    1.3998   
    20. B(C  19,C  18)                1.4040  0.014379 -0.0125    1.3915   
    21. B(C  19,C  10)                1.4228 -0.005358  0.0047    1.4275   
    22. B(C  19,C   6)                1.4043 -0.013519  0.0125    1.4168   
    23. B(S  20,C   7)                1.6765 -0.025428  0.0235    1.7000   
    24. B(S  20,C   4)                1.6978 -0.024587  0.0225    1.7202   
    25. B(C  21,C   3)                1.4076  0.015459 -0.0136    1.3940   
    26. B(C  22,C  21)                1.3983  0.016495 -0.0140    1.3843   
    27. B(C  22,C   0)                1.3963  0.010513 -0.0088    1.3876   
    28. B(H  23,C   0)                1.0824  0.001917 -0.0026    1.0797   
    29. B(H  24,C   1)                1.0824  0.002390 -0.0033    1.0792   
    30. B(H  25,C   2)                1.0820  0.001283 -0.0017    1.0802   
    31. B(H  26,C   8)                1.0823  0.002692 -0.0037    1.0786   
    32. B(H  27,C   9)                1.0834  0.003635 -0.0050    1.0785   
    33. B(H  28,C  11)                1.0848  0.003663 -0.0050    1.0798   
    34. B(H  29,C  13)                1.0836  0.002822 -0.0039    1.0797   
    35. B(H  30,C  14)                1.0824  0.001909 -0.0026    1.0798   
    36. B(H  31,C  15)                1.0824  0.001928 -0.0026    1.0797   
    37. B(H  32,C  16)                1.0836  0.003011 -0.0041    1.0794   
    38. B(H  33,C  18)                1.0844  0.004396 -0.0060    1.0784   
    39. B(H  34,C  21)                1.0828  0.003375 -0.0046    1.0782   
    40. B(H  35,C  22)                1.0824  0.002451 -0.0033    1.0791   
    41. A(C   1,C   0,H  23)          120.02 -0.000157    0.01    120.02   
    42. A(C  22,C   0,H  23)          120.01 -0.000438    0.05    120.06   
    43. A(C   1,C   0,C  22)          119.97  0.000594   -0.05    119.92   
    44. A(C   0,C   1,H  24)          119.90 -0.000757    0.11    120.01   
    45. A(C   2,C   1,H  24)          119.94  0.000605   -0.10    119.84   
    46. A(C   0,C   1,C   2)          120.16  0.000152   -0.01    120.15   
    47. A(C   1,C   2,C   3)          120.41  0.001517   -0.22    120.20   
    48. A(C   3,C   2,H  25)          121.02  0.002298   -0.36    120.65   
    49. A(C   1,C   2,H  25)          118.57 -0.003815    0.58    119.15   
    50. A(C   4,C   3,C  21)          120.12  0.002158   -0.27    119.84   
    51. A(C   2,C   3,C   4)          121.01  0.001952   -0.25    120.76   
    52. A(C   2,C   3,C  21)          118.87 -0.004109    0.52    119.39   
    53. A(N   5,C   4,S  20)          111.42 -0.021470    2.44    113.85   
    54. A(C   3,C   4,N   5)          123.13  0.009468   -1.07    122.06   
    55. A(C   3,C   4,S  20)          125.45  0.012002   -1.37    124.09   
    56. A(C   4,N   5,C   6)          111.73 -0.001638   -0.17    111.57   
    57. A(N   5,C   6,C   7)          114.84 -0.002010    0.23    115.07   
    58. A(N   5,C   6,C  19)          124.90 -0.002113    0.09    124.99   
    59. A(C   7,C   6,C  19)          120.26  0.004123   -0.33    119.94   
    60. A(C   8,C   7,S  20)          128.41 -0.003570    0.20    128.61   
    61. A(C   6,C   7,C   8)          122.43  0.001188   -0.19    122.24   
    62. A(C   6,C   7,S  20)          109.16  0.002383   -0.02    109.15   
    63. A(C   9,C   8,H  26)          120.78  0.000707   -0.04    120.73   
    64. A(C   7,C   8,H  26)          120.91  0.001384   -0.15    120.76   
    65. A(C   7,C   8,C   9)          118.32 -0.002091    0.19    118.50   
    66. A(C  10,C   9,H  27)          120.51  0.005541   -0.68    119.83   
    67. A(C   8,C   9,H  27)          118.96  0.002303   -0.17    118.78   
    68. A(C   8,C   9,C  10)          120.53 -0.007844    0.85    121.38   
    69. A(C   9,C  10,C  19)          120.07 -0.001096    0.06    120.13   
    70. A(C   9,C  10,C  11)          120.28 -0.002241    0.35    120.63   
    71. A(C  11,C  10,C  19)          119.65  0.003336   -0.41    119.24   
    72. A(C  10,C  11,H  28)          119.80  0.001794   -0.26    119.54   
    73. A(C  10,C  11,C  12)          120.39 -0.003344    0.47    120.87   
    74. A(C  12,C  11,H  28)          119.81  0.001551   -0.22    119.59   
    75. A(C  11,C  12,C  13)          120.48 -0.006641    0.76    121.23   
    76. A(C  13,C  12,C  17)          119.60  0.004232   -0.45    119.15   
    77. A(C  11,C  12,C  17)          119.92  0.002409   -0.31    119.61   
    78. A(C  12,C  13,C  14)          120.19 -0.001230    0.17    120.36   
    79. A(C  14,C  13,H  29)          119.14 -0.001453    0.23    119.38   
    80. A(C  12,C  13,H  29)          120.67  0.002683   -0.41    120.27   
    81. A(C  13,C  14,C  15)          120.22 -0.002899    0.26    120.48   
    82. A(C  15,C  14,H  30)          119.88  0.001324   -0.11    119.77   
    83. A(C  13,C  14,H  30)          119.90  0.001575   -0.15    119.75   
    84. A(C  14,C  15,C  16)          120.21 -0.002968    0.27    120.49   
    85. A(C  14,C  15,H  31)          119.88  0.001419   -0.13    119.76   
    86. A(C  16,C  15,H  31)          119.90  0.001549   -0.15    119.76   
    87. A(C  15,C  16,H  32)          119.14 -0.001568    0.25    119.40   
    88. A(C  17,C  16,H  32)          120.67  0.002872   -0.43    120.24   
    89. A(C  15,C  16,C  17)          120.18 -0.001304    0.18    120.36   
    90. A(C  16,C  17,C  18)          120.48 -0.006494    0.74    121.22   
    91. A(C  12,C  17,C  18)          119.92  0.002326   -0.30    119.62   
    92. A(C  12,C  17,C  16)          119.60  0.004168   -0.44    119.16   
    93. A(C  19,C  18,H  33)          120.09  0.003354   -0.51    119.58   
    94. A(C  17,C  18,H  33)          119.66 -0.001201    0.20    119.86   
    95. A(C  17,C  18,C  19)          120.25 -0.002153    0.31    120.56   
    96. A(C  10,C  19,C  18)          119.86 -0.002574    0.24    120.10   
    97. A(C   6,C  19,C  18)          121.74 -0.003146    0.35    122.09   
    98. A(C   6,C  19,C  10)          118.40  0.005720   -0.59    117.81   
    99. A(C   4,S  20,C   7)           92.85  0.022736   -2.49     90.36   
   100. A(C  22,C  21,H  34)          118.77 -0.005221    0.79    119.56   
   101. A(C   3,C  21,H  34)          120.77  0.003288   -0.52    120.25   
   102. A(C   3,C  21,C  22)          120.46  0.001932   -0.27    120.19   
   103. A(C   0,C  22,C  21)          120.13 -0.000087    0.03    120.16   
   104. A(C  21,C  22,H  35)          119.95  0.000626   -0.10    119.85   
   105. A(C   0,C  22,H  35)          119.92 -0.000540    0.08    119.99   
   106. D(H  24,C   1,C   0,H  23)      0.00  0.000000   -0.00      0.00   
   107. D(C   2,C   1,C   0,H  23)   -180.00  0.000000   -0.00   -180.00   
   108. D(C   2,C   1,C   0,C  22)     -0.00 -0.000000    0.00     -0.00   
   109. D(H  24,C   1,C   0,C  22)    180.00 -0.000000    0.00    180.00   
   110. D(C   3,C   2,C   1,C   0)      0.00  0.000000   -0.00      0.00   
   111. D(C   3,C   2,C   1,H  24)    180.00 -0.000000    0.00    180.00   
   112. D(H  25,C   2,C   1,H  24)     -0.00 -0.000000    0.00     -0.00   
   113. D(H  25,C   2,C   1,C   0)    180.00 -0.000000    0.00    180.00   
   114. D(C  21,C   3,C   2,C   1)      0.00  0.000000   -0.00      0.00   
   115. D(C  21,C   3,C   2,H  25)   -180.00  0.000000   -0.00   -180.00   
   116. D(C   4,C   3,C   2,C   1)    180.00 -0.000000    0.00    180.00   
   117. D(C   4,C   3,C   2,H  25)     -0.00  0.000000    0.00     -0.00   
   118. D(S  20,C   4,C   3,C   2)      0.00  0.000000   -0.00      0.00   
   119. D(N   5,C   4,C   3,C   2)   -180.00  0.000000   -0.00   -180.00   
   120. D(N   5,C   4,C   3,C  21)      0.00  0.000000   -0.00      0.00   
   121. D(S  20,C   4,C   3,C  21)   -180.00 -0.000000    0.00   -180.00   
   122. D(C   6,N   5,C   4,S  20)      0.00  0.000000    0.00      0.00   
   123. D(C   6,N   5,C   4,C   3)    180.00 -0.000000    0.00    180.00   
   124. D(C   7,C   6,N   5,C   4)     -0.00 -0.000000    0.00     -0.00   
   125. D(C  19,C   6,N   5,C   4)   -180.00  0.000000   -0.00   -180.00   
   126. D(S  20,C   7,C   6,C  19)    180.00  0.000000   -0.00    180.00   
   127. D(S  20,C   7,C   6,N   5)      0.00  0.000000   -0.00      0.00   
   128. D(C   8,C   7,C   6,C  19)     -0.00 -0.000000    0.00     -0.00   
   129. D(C   8,C   7,C   6,N   5)   -180.00  0.000000   -0.00   -180.00   
   130. D(H  26,C   8,C   7,S  20)      0.00  0.000000   -0.00      0.00   
   131. D(H  26,C   8,C   7,C   6)   -180.00  0.000000   -0.00   -180.00   
   132. D(C   9,C   8,C   7,S  20)    180.00 -0.000000    0.00    180.00   
   133. D(C   9,C   8,C   7,C   6)     -0.00 -0.000000    0.00     -0.00   
   134. D(H  27,C   9,C   8,C   7)   -180.00  0.000000   -0.00   -180.00   
   135. D(C  10,C   9,C   8,H  26)    180.00 -0.000000    0.00    180.00   
   136. D(C  10,C   9,C   8,C   7)      0.00  0.000000   -0.00      0.00   
   137. D(H  27,C   9,C   8,H  26)     -0.00 -0.000000    0.00     -0.00   
   138. D(C  19,C  10,C   9,H  27)    180.00 -0.000000    0.00    180.00   
   139. D(C  19,C  10,C   9,C   8)     -0.00 -0.000000    0.00     -0.00   
   140. D(C  11,C  10,C   9,H  27)     -0.00 -0.000000    0.00     -0.00   
   141. D(C  11,C  10,C   9,C   8)    180.00 -0.000000    0.00    180.00   
   142. D(H  28,C  11,C  10,C  19)   -180.00  0.000000   -0.00   -180.00   
   143. D(H  28,C  11,C  10,C   9)      0.00  0.000000   -0.00      0.00   
   144. D(C  12,C  11,C  10,C  19)     -0.00 -0.000000    0.00     -0.00   
   145. D(C  12,C  11,C  10,C   9)   -180.00 -0.000000    0.00   -180.00   
   146. D(C  17,C  12,C  11,H  28)    180.00 -0.000000    0.00    180.00   
   147. D(C  17,C  12,C  11,C  10)      0.00  0.000000   -0.00     -0.00   
   148. D(C  13,C  12,C  11,H  28)     -0.00 -0.000000    0.00     -0.00   
   149. D(C  13,C  12,C  11,C  10)   -180.00  0.000000   -0.00   -180.00   
   150. D(H  29,C  13,C  12,C  17)   -180.00  0.000000   -0.00   -180.00   
   151. D(H  29,C  13,C  12,C  11)     -0.00 -0.000000    0.00     -0.00   
   152. D(C  14,C  13,C  12,C  17)      0.00  0.000000   -0.00      0.00   
   153. D(C  14,C  13,C  12,C  11)   -180.00  0.000000   -0.00   -180.00   
   154. D(H  30,C  14,C  13,H  29)      0.00  0.000000   -0.00      0.00   
   155. D(H  30,C  14,C  13,C  12)   -180.00  0.000000   -0.00   -180.00   
   156. D(C  15,C  14,C  13,H  29)   -180.00  0.000000   -0.00   -180.00   
   157. D(C  15,C  14,C  13,C  12)     -0.00 -0.000000    0.00     -0.00   
   158. D(H  31,C  15,C  14,H  30)     -0.00 -0.000000    0.00     -0.00   
   159. D(H  31,C  15,C  14,C  13)   -180.00  0.000000   -0.00   -180.00   
   160. D(C  16,C  15,C  14,H  30)    180.00 -0.000000    0.00    180.00   
   161. D(C  16,C  15,C  14,C  13)     -0.00 -0.000000    0.00     -0.00   
   162. D(H  32,C  16,C  15,H  31)     -0.00 -0.000000    0.00     -0.00   
   163. D(H  32,C  16,C  15,C  14)   -180.00  0.000000   -0.00   -180.00   
   164. D(C  17,C  16,C  15,H  31)   -180.00 -0.000000    0.00   -180.00   
   165. D(C  17,C  16,C  15,C  14)      0.00  0.000000   -0.00      0.00   
   166. D(C  18,C  17,C  12,C  11)      0.00  0.000000   -0.00      0.00   
   167. D(C  16,C  17,C  12,C  13)     -0.00 -0.000000    0.00     -0.00   
   168. D(C  16,C  17,C  12,C  11)   -180.00  0.000000   -0.00   -180.00   
   169. D(C  18,C  17,C  16,H  32)     -0.00 -0.000000    0.00     -0.00   
   170. D(C  18,C  17,C  16,C  15)    180.00 -0.000000    0.00    180.00   
   171. D(C  12,C  17,C  16,H  32)    180.00 -0.000000    0.00    180.00   
   172. D(C  12,C  17,C  16,C  15)     -0.00 -0.000000    0.00     -0.00   
   173. D(C  18,C  17,C  12,C  13)    180.00 -0.000000    0.00    180.00   
   174. D(H  33,C  18,C  17,C  16)      0.00  0.000000   -0.00      0.00   
   175. D(H  33,C  18,C  17,C  12)   -180.00  0.000000   -0.00   -180.00   
   176. D(C  19,C  18,C  17,C  16)    180.00 -0.000000    0.00    180.00   
   177. D(C  19,C  18,C  17,C  12)     -0.00 -0.000000    0.00      0.00   
   178. D(C  10,C  19,C  18,H  33)    180.00 -0.000000    0.00    180.00   
   179. D(C  10,C  19,C  18,C  17)     -0.00  0.000000   -0.00     -0.00   
   180. D(C   6,C  19,C  18,H  33)     -0.00 -0.000000    0.00     -0.00   
   181. D(C   6,C  19,C  18,C  17)    180.00  0.000000   -0.00    180.00   
   182. D(C  18,C  19,C  10,C  11)      0.00  0.000000   -0.00      0.00   
   183. D(C  18,C  19,C  10,C   9)   -180.00  0.000000   -0.00   -180.00   
   184. D(C   6,C  19,C  10,C  11)   -180.00  0.000000   -0.00   -180.00   
   185. D(C   6,C  19,C  10,C   9)      0.00  0.000000    0.00      0.00   
   186. D(C  18,C  19,C   6,C   7)   -180.00  0.000000   -0.00   -180.00   
   187. D(C  18,C  19,C   6,N   5)     -0.00 -0.000000    0.00     -0.00   
   188. D(C  10,C  19,C   6,C   7)      0.00  0.000000   -0.00      0.00   
   189. D(C  10,C  19,C   6,N   5)    180.00 -0.000000    0.00    180.00   
   190. D(C   4,S  20,C   7,C   8)    180.00 -0.000000    0.00    180.00   
   191. D(C   4,S  20,C   7,C   6)     -0.00 -0.000000    0.00     -0.00   
   192. D(C   7,S  20,C   4,N   5)      0.00  0.000000   -0.00      0.00   
   193. D(C   7,S  20,C   4,C   3)   -180.00  0.000000   -0.00   -180.00   
   194. D(H  34,C  21,C   3,C   4)      0.00  0.000000   -0.00      0.00   
   195. D(H  34,C  21,C   3,C   2)    180.00 -0.000000    0.00    180.00   
   196. D(C  22,C  21,C   3,C   4)   -180.00  0.000000   -0.00   -180.00   
   197. D(C  22,C  21,C   3,C   2)     -0.00 -0.000000    0.00     -0.00   
   198. D(H  35,C  22,C  21,H  34)     -0.00 -0.000000    0.00     -0.00   
   199. D(H  35,C  22,C  21,C   3)   -180.00  0.000000   -0.00   -180.00   
   200. D(C   0,C  22,C  21,H  34)    180.00 -0.000000    0.00    180.00   
   201. D(C   0,C  22,C  21,C   3)      0.00  0.000000   -0.00      0.00   
   202. D(H  35,C  22,C   0,H  23)     -0.00 -0.000000    0.00     -0.00   
   203. D(H  35,C  22,C   0,C   1)   -180.00  0.000000   -0.00   -180.00   
   204. D(C  21,C  22,C   0,H  23)    180.00 -0.000000    0.00    180.00   
   205. D(C  21,C  22,C   0,C   1)      0.00  0.000000   -0.00      0.00   
    ----------------------------------------------------------------------------

         *************************************************************
         *                GEOMETRY OPTIMIZATION CYCLE   2            *
         *************************************************************
      -----------------------------------------------------------      
     |                   =====================                   |     
     |                           x T B                           |     
     |                   =====================                   |     
     |                         S. Grimme                         |     
     |          Mulliken Center for Theoretical Chemistry        |     
     |                    University of Bonn                     |     
      -----------------------------------------------------------      

   * xtb version 6.2.3 (830e466) compiled by 'ehlert@majestix' on 2020-03-16

   xtb is free software: you can redistribute it and/or modify it under
   the terms of the GNU Lesser General Public License as published by
   the Free Software Foundation, either version 3 of the License, or
   (at your option) any later version.
   
   xtb is distributed in the hope that it will be useful,
   but WITHOUT ANY WARRANTY; without even the implied warranty of
   MERCHANTABILITY or FITNESS FOR A PARTICULAR PURPOSE.  See the
   GNU Lesser General Public License for more details.
   
   Cite this work as:
   * S. Grimme, C. Bannwarth, P. Shushkov, J. Chem. Theory Comput., 2017,
     13, 1989-2009. DOI: 10.1021/acs.jctc.7b00118
   * C. Bannwarth, S. Ehlert and S. Grimme., J. Chem. Theory Comput., 2019,
     15, 1652-1671. DOI: 10.1021/acs.jctc.8b01176
   * P. Pracht, E. Caldeweyher, S. Ehlert, S. Grimme, ChemRxiv, 2019, preprint.
     DOI: 10.26434/chemrxiv.8326202.v1
   
   for DFT-D4:
   * E. Caldeweyher, C. Bannwarth and S. Grimme, J. Chem. Phys., 2017,
     147, 034112. DOI: 10.1063/1.4993215
   * E. Caldeweyher, S. Ehlert, A. Hansen, H. Neugebauer, S. Spicher,
     C. Bannwarth and S. Grimme, J. Chem. Phys., 2019, 150, 154122.
     DOI: 10.1063/1.5090222
   
   for sTDA-xTB:
   * S. Grimme and C. Bannwarth, J. Chem. Phys., 2016, 145, 054103.
     DOI: 10.1063/1.4959605
   
   in the mass-spec context:
   * V. Asgeirsson, C. Bauer and S. Grimme, Chem. Sci., 2017, 8, 4879.
     DOI: 10.1039/c7sc00601b
   
   for metadynamics refer to:
   * S. Grimme, J. Chem. Theory Comput., 2019, 155, 2847-2862
     DOI: 10.1021/acs.jctc.9b00143
   
   with help from (in alphabetical order)
   C. Bannwarth, F. Bohle, G. Brandenburg, E. Caldeweyher, M. Checinski,
   S. Dohm, S. Ehlert, S. Ehrlich, F. März, H. Neugebauer, J. Pisarek,
   P. Pracht, P. Shushkov, and S. Spicher.
   
 * started run on 2026/01/19 at 14:08:23.747     

           -------------------------------------------------
          |                Calculation Setup                |
           -------------------------------------------------

          program call               : /appl/orca_4.2.1/orca_4_2_1_linux_x86-64_openmpi314/xtb pre_opt_XTB.xyz --grad -c 0 -u 0 -P 1 --namespace pre_opt
          hostname                   : cnode9
          calculation namespace      : pre_opt
          coordinate file            : pre_opt_XTB.xyz
          omp threads                :                     1
          number of atoms            :                    36
          number of electrons        :                   108
          charge                     :                     0
          spin                       :                   0.0
          first test random number   :      0.05930004457035

########################################################################
[WARNING] Please study the warnings concerning your input carefully
-2- prog_main: XTBPATH is not set, using XTBHOME instead
-1- prog_main: XTBHOME is not set, using HOME instead
########################################################################
           ------------------------------------------------- 
          |                 G F N 2 - x T B                 |
          | Geometry, Frequencies, Noncovalent interactions |
          |            JCTC 2019 parametrisation            |
           ------------------------------------------------- 
             k(s)              :                1.8500
             k(p)              :                2.2300
             k(d)              :                2.2300
             k(f)              :                2.0000
             kEN (H0ij)        :               -2.0000
             D4 a1             :                0.5200
             D4 a2             :                5.0000
             D4 s6             :                1.0000
             D4 s8             :                2.7000
             D4 s9             :                5.0000
             alphaj            :                2.0000

  Z AO/shell   Hii/eV     exponent
  1     Wed Apr 25 08:07:45 CEST 2018   EN: 2.200 GM2: 0.406  GM3: 0.0800  RAES: 1.40
     1s    -10.707211    1.230000
  6     Wed Apr 25 08:07:45 CEST 2018   EN: 2.550 GM2: 0.538  GM3: 0.1500  RAES: 3.00
     2s    -13.970922    2.096432
     2p    -10.063292    1.800000
  7     Wed Apr 25 08:07:45 CEST 2018   EN: 3.040 GM2: 0.461  GM3:-0.0640  RAES: 1.90
     2s    -16.686243    2.339881
     2p    -12.523956    2.014332
 16     Tue Apr 24 11:44:34 CEST 2018   EN: 2.580 GM2: 0.340  GM3:-0.0502  RAES: 3.10
     3s    -20.029654    1.981333
     3p    -11.377694    2.025643
     3d     -0.420282    1.702555

           ------------------------------------------------- 
          |        Self-Consistent Charge Iterations        |
           ------------------------------------------------- 

          ...................................................
          :                      SETUP                      :
          :.................................................:
          :  # basis functions                 111          :
          :  # atomic orbitals                 110          :
          :  # shells                           60          :
          :  # electrons                       108          :
          :  max. iterations                   250          :
          :  Hamiltonian                  GFN2-xTB          :
          :  restarted?                      false          :
          :  GBSA solvation                  false          :
          :  PC potential                    false          :
          :  electronic temp.          300.0000000     K    :
          :  accuracy                    1.0000000          :
          :  -> integral cutoff          0.2500000E+02      :
          :  -> integral neglect         0.1000000E-07      :
          :  -> SCF convergence          0.1000000E-05 Eh   :
          :  -> wf. convergence          0.1000000E-03 e    :
          :  Broyden damping             0.4000000          :
          ...................................................

 iter      E             dE          RMSdq      gap      omega  full diag
   1    -58.7950317 -0.587950E+02  0.440E+00    1.99       0.0  T
   2    -58.8251318 -0.301002E-01  0.255E+00    1.97       1.0  T
   3    -58.8067242  0.184077E-01  0.977E-01    1.99       1.0  T
   4    -58.8270523 -0.203281E-01  0.386E-01    1.96       1.0  T
   5    -58.8308515 -0.379925E-02  0.175E-01    1.96       1.0  T
   6    -58.8316472 -0.795683E-03  0.676E-02    1.96       1.0  T
   7    -58.8317370 -0.897773E-04  0.240E-02    1.96       1.0  T
   8    -58.8317427 -0.571337E-05  0.119E-02    1.96       1.4  T
   9    -58.8317442 -0.145812E-05  0.638E-03    1.96       2.6  T
  10    -58.8317448 -0.690167E-06  0.192E-03    1.96       8.7  T
  11    -58.8317449 -0.476010E-07  0.101E-03    1.96      16.5  T
  12    -58.8317449 -0.887216E-08  0.447E-04    1.96      37.3  T
  13    -58.8317449 -0.283666E-08  0.216E-04    1.96      77.2  T

   *** convergence criteria satisfied after 13 iterations ***

         #    Occupation            Energy/Eh            Energy/eV
      -------------------------------------------------------------
         1        2.0000           -0.7376407             -20.0722
       ...           ...                  ...                  ...
        48        2.0000           -0.4162060             -11.3255
        49        2.0000           -0.4153299             -11.3017
        50        2.0000           -0.4115384             -11.1985
        51        2.0000           -0.3929383             -10.6924
        52        2.0000           -0.3917037             -10.6588
        53        2.0000           -0.3883315             -10.5670
        54        2.0000           -0.3609859              -9.8229 (HOMO)
        55                         -0.2888393              -7.8597 (LUMO)
        56                         -0.2682673              -7.2999
        57                         -0.2332225              -6.3463
        58                         -0.2299578              -6.2575
        59                         -0.2185276              -5.9464
       ...                                ...                  ...
       110                          0.7245348              19.7156
      -------------------------------------------------------------
                  HL-Gap            0.0721466 Eh            1.9632 eV
             Fermi-level           -0.3249126 Eh           -8.8413 eV

 SCC (total)                   0 d,  0 h,  0 min,  0.107 sec
 SCC setup                      ...        0 min,  0.001 sec (  0.628%)
 Dispersion                     ...        0 min,  0.001 sec (  0.786%)
 integral evaluation            ...        0 min,  0.050 sec ( 47.170%)
 zeroth order Hamiltonian       ...        0 min,  0.000 sec (  0.388%)
 iterations                     ...        0 min,  0.030 sec ( 27.698%)
 molecular gradient             ...        0 min,  0.025 sec ( 23.132%)
 printout                       ...        0 min,  0.000 sec (  0.151%)

         :::::::::::::::::::::::::::::::::::::::::::::::::::::
         ::                     SUMMARY                     ::
         :::::::::::::::::::::::::::::::::::::::::::::::::::::
         :: total energy             -57.780975776782 Eh    ::
         :: gradient norm              0.068236551426 Eh/a0 ::
         :: HOMO-LUMO gap              1.963208099015 eV    ::
         ::.................................................::
         :: SCC energy               -58.831744900984 Eh    ::
         :: -> isotropic ES            0.010875945181 Eh    ::
         :: -> anisotropic ES          0.004508356809 Eh    ::
         :: -> anisotropic XC          0.034644324308 Eh    ::
         :: -> dispersion             -0.045958286863 Eh    ::
         :: repulsion energy           1.051280748591 Eh    ::
         :: add. restraining           0.000000000000 Eh    ::
         :::::::::::::::::::::::::::::::::::::::::::::::::::::

           -------------------------------------------------
          |                Property Printout                |
           -------------------------------------------------

    * Orbital Energies and Occupations

         #    Occupation            Energy/Eh            Energy/eV
      -------------------------------------------------------------
         1        2.0000           -0.7376407             -20.0722
       ...           ...                  ...                  ...
        42        2.0000           -0.4381715             -11.9233
        43        2.0000           -0.4353767             -11.8472
        44        2.0000           -0.4327134             -11.7747
        45        2.0000           -0.4283446             -11.6559
        46        2.0000           -0.4216467             -11.4736
        47        2.0000           -0.4171579             -11.3514
        48        2.0000           -0.4162060             -11.3255
        49        2.0000           -0.4153299             -11.3017
        50        2.0000           -0.4115384             -11.1985
        51        2.0000           -0.3929383             -10.6924
        52        2.0000           -0.3917037             -10.6588
        53        2.0000           -0.3883315             -10.5670
        54        2.0000           -0.3609859              -9.8229 (HOMO)
        55                         -0.2888393              -7.8597 (LUMO)
        56                         -0.2682673              -7.2999
        57                         -0.2332225              -6.3463
        58                         -0.2299578              -6.2575
        59                         -0.2185276              -5.9464
        60                         -0.2001672              -5.4468
        61                         -0.1945355              -5.2936
        62                         -0.1799397              -4.8964
        63                         -0.1697762              -4.6198
        64                         -0.1225543              -3.3349
        65                         -0.1037920              -2.8243
       ...                                ...                  ...
       110                          0.7245348              19.7156
      -------------------------------------------------------------
                  HL-Gap            0.0721466 Eh            1.9632 eV
             Fermi-level           -0.3249126 Eh           -8.8413 eV

     #   Z        covCN         q      C6AA      α(0)
     1   6 C      2.919    -0.026    28.663     8.779
     2   6 C      2.917    -0.028    28.692     8.784
     3   6 C      2.924    -0.031    28.775     8.797
     4   6 C      2.997     0.008    27.818     8.652
     5   6 C      3.022     0.112    25.512     8.285
     6   7 N      1.960    -0.261    27.618     7.793
     7   6 C      3.244     0.074    25.426     8.170
     8   6 C      2.997     0.019    27.568     8.613
     9   6 C      2.929    -0.042    29.034     8.837
    10   6 C      2.922    -0.040    29.006     8.832
    11   6 C      2.980     0.008    27.834     8.654
    12   6 C      2.924    -0.043    29.070     8.842
    13   6 C      2.983     0.015    27.673     8.629
    14   6 C      2.919    -0.036    28.892     8.814
    15   6 C      2.914    -0.030    28.746     8.792
    16   6 C      2.914    -0.030    28.745     8.792
    17   6 C      2.919    -0.035    28.870     8.811
    18   6 C      2.984     0.015    27.662     8.627
    19   6 C      2.921    -0.037    28.923     8.819
    20   6 C      2.981     0.003    27.960     8.674
    21  16 S      2.326    -0.059   143.499    20.162
    22   6 C      2.925    -0.025    28.635     8.775
    23   6 C      2.917    -0.027    28.684     8.783
    24   1 H      0.926     0.036     2.502     2.474
    25   1 H      0.926     0.036     2.500     2.473
    26   1 H      0.926     0.041     2.431     2.438
    27   1 H      0.926     0.038     2.480     2.463
    28   1 H      0.926     0.038     2.476     2.460
    29   1 H      0.926     0.035     2.519     2.482
    30   1 H      0.926     0.032     2.561     2.502
    31   1 H      0.926     0.030     2.584     2.514
    32   1 H      0.926     0.031     2.579     2.511
    33   1 H      0.926     0.034     2.524     2.484
    34   1 H      0.926     0.052     2.297     2.370
    35   1 H      0.926     0.056     2.250     2.346
    36   1 H      0.926     0.038     2.475     2.460

 Mol. C6AA /au·bohr⁶  :      22234.951361
 Mol. C8AA /au·bohr⁸  :     606692.149043
 Mol. α(0) /au        :        242.693631


Wiberg/Mayer (AO) data.
largest (>0.10) Wiberg bond orders for each atom
          total WBO             WBO to atom ...
     1  C   3.966        C    2 1.429    C   23 1.428    H   24 0.971
     2  C   3.992        C    3 1.458    C    1 1.429    H   25 0.971    C   22 0.105
     3  C   3.982        C    2 1.458    C    4 1.369    H   26 0.965    C   23 0.105
     4  C   3.988        C    3 1.369    C   22 1.360    C    5 1.101
     5  C   3.943        N    6 1.528    S   21 1.132    C    4 1.101
     6  N   3.100        C    5 1.528    C    7 1.269    S   21 0.149
     7  C   3.973        C    8 1.318    N    6 1.269    C   20 1.171
     8  C   3.939        C    7 1.318    C    9 1.274    S   21 1.149
     9  C   3.975        C   10 1.584    C    8 1.274    H   27 0.969
    10  C   3.972        C    9 1.584    C   11 1.229    H   28 0.968
    11  C   3.990        C   12 1.388    C   10 1.229    C   20 1.201
    12  C   3.978        C   11 1.388    C   13 1.350    H   29 0.967    C   19 0.133
    13  C   3.987        C   12 1.350    C   14 1.265    C   18 1.204
    14  C   3.982        C   15 1.561    C   13 1.265    H   30 0.969    C   17 0.125
    15  C   3.981        C   14 1.561    C   16 1.315    H   31 0.971
    16  C   3.977        C   17 1.559    C   15 1.315    H   32 0.971
    17  C   3.986        C   16 1.559    C   18 1.268    H   33 0.969    C   14 0.125
    18  C   3.984        C   19 1.343    C   17 1.268    C   13 1.204
    19  C   3.989        C   20 1.406    C   18 1.343    H   34 0.965    C   12 0.133
    20  C   3.987        C   19 1.406    C   11 1.201    C    7 1.171
    21  S   2.628        C    8 1.149    C    5 1.132    N    6 0.149
    22  C   3.982        C   23 1.460    C    4 1.360    H   35 0.967    C    2 0.105
[...]
   204. D(C  21,C  22,C   0,H  23)    180.00 -0.000000   -0.00    180.00   
   205. D(C  21,C  22,C   0,C   1)      0.00  0.000000   -0.00     -0.00   
    ----------------------------------------------------------------------------
                 *******************************************************
                 *** FINAL ENERGY EVALUATION AT THE STATIONARY POINT ***
                 ***               (AFTER    8 CYCLES)               ***
                 *******************************************************
      -----------------------------------------------------------      
     |                   =====================                   |     
     |                           x T B                           |     
     |                   =====================                   |     
     |                         S. Grimme                         |     
     |          Mulliken Center for Theoretical Chemistry        |     
     |                    University of Bonn                     |     
      -----------------------------------------------------------      

   * xtb version 6.2.3 (830e466) compiled by 'ehlert@majestix' on 2020-03-16

   xtb is free software: you can redistribute it and/or modify it under
   the terms of the GNU Lesser General Public License as published by
   the Free Software Foundation, either version 3 of the License, or
   (at your option) any later version.
   
   xtb is distributed in the hope that it will be useful,
   but WITHOUT ANY WARRANTY; without even the implied warranty of
   MERCHANTABILITY or FITNESS FOR A PARTICULAR PURPOSE.  See the
   GNU Lesser General Public License for more details.
   
   Cite this work as:
   * S. Grimme, C. Bannwarth, P. Shushkov, J. Chem. Theory Comput., 2017,
     13, 1989-2009. DOI: 10.1021/acs.jctc.7b00118
   * C. Bannwarth, S. Ehlert and S. Grimme., J. Chem. Theory Comput., 2019,
     15, 1652-1671. DOI: 10.1021/acs.jctc.8b01176
   * P. Pracht, E. Caldeweyher, S. Ehlert, S. Grimme, ChemRxiv, 2019, preprint.
     DOI: 10.26434/chemrxiv.8326202.v1
   
   for DFT-D4:
   * E. Caldeweyher, C. Bannwarth and S. Grimme, J. Chem. Phys., 2017,
     147, 034112. DOI: 10.1063/1.4993215
   * E. Caldeweyher, S. Ehlert, A. Hansen, H. Neugebauer, S. Spicher,
     C. Bannwarth and S. Grimme, J. Chem. Phys., 2019, 150, 154122.
     DOI: 10.1063/1.5090222
   
   for sTDA-xTB:
   * S. Grimme and C. Bannwarth, J. Chem. Phys., 2016, 145, 054103.
     DOI: 10.1063/1.4959605
   
   in the mass-spec context:
   * V. Asgeirsson, C. Bauer and S. Grimme, Chem. Sci., 2017, 8, 4879.
     DOI: 10.1039/c7sc00601b
   
   for metadynamics refer to:
   * S. Grimme, J. Chem. Theory Comput., 2019, 155, 2847-2862
     DOI: 10.1021/acs.jctc.9b00143
   
   with help from (in alphabetical order)
   C. Bannwarth, F. Bohle, G. Brandenburg, E. Caldeweyher, M. Checinski,
   S. Dohm, S. Ehlert, S. Ehrlich, F. März, H. Neugebauer, J. Pisarek,
   P. Pracht, P. Shushkov, and S. Spicher.
   
 * started run on 2026/01/19 at 14:08:36.266     

           -------------------------------------------------
          |                Calculation Setup                |
           -------------------------------------------------

          program call               : /appl/orca_4.2.1/orca_4_2_1_linux_x86-64_openmpi314/xtb pre_opt_XTB.xyz --grad -c 0 -u 0 -P 1 --namespace pre_opt
          hostname                   : cnode9
          calculation namespace      : pre_opt
          coordinate file            : pre_opt_XTB.xyz
          omp threads                :                     1
          number of atoms            :                    36
          number of electrons        :                   108
          charge                     :                     0
          spin                       :                   0.0
          first test random number   :      0.19686719669668

########################################################################
[WARNING] Please study the warnings concerning your input carefully
-2- prog_main: XTBPATH is not set, using XTBHOME instead
-1- prog_main: XTBHOME is not set, using HOME instead
########################################################################
           ------------------------------------------------- 
          |                 G F N 2 - x T B                 |
          | Geometry, Frequencies, Noncovalent interactions |
          |            JCTC 2019 parametrisation            |
           ------------------------------------------------- 
             k(s)              :                1.8500
             k(p)              :                2.2300
             k(d)              :                2.2300
             k(f)              :                2.0000
             kEN (H0ij)        :               -2.0000
             D4 a1             :                0.5200
             D4 a2             :                5.0000
             D4 s6             :                1.0000
             D4 s8             :                2.7000
             D4 s9             :                5.0000
             alphaj            :                2.0000

  Z AO/shell   Hii/eV     exponent
  1     Wed Apr 25 08:07:45 CEST 2018   EN: 2.200 GM2: 0.406  GM3: 0.0800  RAES: 1.40
     1s    -10.707211    1.230000
  6     Wed Apr 25 08:07:45 CEST 2018   EN: 2.550 GM2: 0.538  GM3: 0.1500  RAES: 3.00
     2s    -13.970922    2.096432
     2p    -10.063292    1.800000
  7     Wed Apr 25 08:07:45 CEST 2018   EN: 3.040 GM2: 0.461  GM3:-0.0640  RAES: 1.90
     2s    -16.686243    2.339881
     2p    -12.523956    2.014332
 16     Tue Apr 24 11:44:34 CEST 2018   EN: 2.580 GM2: 0.340  GM3:-0.0502  RAES: 3.10
     3s    -20.029654    1.981333
     3p    -11.377694    2.025643
     3d     -0.420282    1.702555

           ------------------------------------------------- 
          |        Self-Consistent Charge Iterations        |
           ------------------------------------------------- 

          ...................................................
          :                      SETUP                      :
          :.................................................:
          :  # basis functions                 111          :
          :  # atomic orbitals                 110          :
          :  # shells                           60          :
          :  # electrons                       108          :
          :  max. iterations                   250          :
          :  Hamiltonian                  GFN2-xTB          :
          :  restarted?                      false          :
          :  GBSA solvation                  false          :
          :  PC potential                    false          :
          :  electronic temp.          300.0000000     K    :
          :  accuracy                    1.0000000          :
          :  -> integral cutoff          0.2500000E+02      :
          :  -> integral neglect         0.1000000E-07      :
          :  -> SCF convergence          0.1000000E-05 Eh   :
          :  -> wf. convergence          0.1000000E-03 e    :
          :  Broyden damping             0.4000000          :
          ...................................................

 iter      E             dE          RMSdq      gap      omega  full diag
   1    -58.8007103 -0.588007E+02  0.445E+00    2.06       0.0  T
   2    -58.8343149 -0.336046E-01  0.256E+00    2.03       1.0  T
   3    -58.8198929  0.144221E-01  0.964E-01    2.04       1.0  T
   4    -58.8350939 -0.152010E-01  0.409E-01    2.02       1.0  T
   5    -58.8397981 -0.470414E-02  0.155E-01    2.02       1.0  T
   6    -58.8402908 -0.492749E-03  0.663E-02    2.02       1.0  T
   7    -58.8403845 -0.937016E-04  0.235E-02    2.02       1.0  T
   8    -58.8403904 -0.589460E-05  0.117E-02    2.02       1.4  T
   9    -58.8403919 -0.144984E-05  0.620E-03    2.02       2.7  T
  10    -58.8403925 -0.638612E-06  0.182E-03    2.02       9.2  T
  11    -58.8403925 -0.400527E-07  0.940E-04    2.02      17.7  T
  12    -58.8403925 -0.639726E-08  0.381E-04    2.02      43.8  T

   *** convergence criteria satisfied after 12 iterations ***

         #    Occupation            Energy/Eh            Energy/eV
      -------------------------------------------------------------
         1        2.0000           -0.7312376             -19.8980
       ...           ...                  ...                  ...
        48        2.0000           -0.4155315             -11.3072
        49        2.0000           -0.4151877             -11.2978
        50        2.0000           -0.4129375             -11.2366
        51        2.0000           -0.3951898             -10.7537
        52        2.0000           -0.3906018             -10.6288
        53        2.0000           -0.3899817             -10.6119
        54        2.0000           -0.3630608              -9.8794 (HOMO)
        55                         -0.2886862              -7.8556 (LUMO)
        56                         -0.2671447              -7.2694
        57                         -0.2349142              -6.3923
        58                         -0.2299313              -6.2567
        59                         -0.2186084              -5.9486
       ...                                ...                  ...
       110                          0.7132009              19.4072
      -------------------------------------------------------------
                  HL-Gap            0.0743746 Eh            2.0238 eV
             Fermi-level           -0.3258735 Eh           -8.8675 eV

 SCC (total)                   0 d,  0 h,  0 min,  0.083 sec
 SCC setup                      ...        0 min,  0.001 sec (  0.695%)
 Dispersion                     ...        0 min,  0.001 sec (  0.661%)
 integral evaluation            ...        0 min,  0.033 sec ( 40.107%)
 zeroth order Hamiltonian       ...        0 min,  0.000 sec (  0.440%)
 iterations                     ...        0 min,  0.024 sec ( 28.582%)
 molecular gradient             ...        0 min,  0.024 sec ( 29.272%)
 printout                       ...        0 min,  0.000 sec (  0.190%)

         :::::::::::::::::::::::::::::::::::::::::::::::::::::
         ::                     SUMMARY                     ::
         :::::::::::::::::::::::::::::::::::::::::::::::::::::
         :: total energy             -57.784456351907 Eh    ::
         :: gradient norm              0.000189496669 Eh/a0 ::
         :: HOMO-LUMO gap              2.023834562687 eV    ::
         ::.................................................::
         :: SCC energy               -58.840392538421 Eh    ::
         :: -> isotropic ES            0.009942996100 Eh    ::
         :: -> anisotropic ES          0.003895482503 Eh    ::
         :: -> anisotropic XC          0.034719444356 Eh    ::
         :: -> dispersion             -0.045917441996 Eh    ::
         :: repulsion energy           1.056450312687 Eh    ::
         :: add. restraining           0.000000000000 Eh    ::
         :::::::::::::::::::::::::::::::::::::::::::::::::::::

           -------------------------------------------------
          |                Property Printout                |
           -------------------------------------------------

    * Orbital Energies and Occupations

         #    Occupation            Energy/Eh            Energy/eV
      -------------------------------------------------------------
         1        2.0000           -0.7312376             -19.8980
       ...           ...                  ...                  ...
        42        2.0000           -0.4374536             -11.9037
        43        2.0000           -0.4360576             -11.8657
        44        2.0000           -0.4338512             -11.8057
        45        2.0000           -0.4286385             -11.6638
        46        2.0000           -0.4213003             -11.4642
        47        2.0000           -0.4174452             -11.3593
        48        2.0000           -0.4155315             -11.3072
        49        2.0000           -0.4151877             -11.2978
        50        2.0000           -0.4129375             -11.2366
        51        2.0000           -0.3951898             -10.7537
        52        2.0000           -0.3906018             -10.6288
        53        2.0000           -0.3899817             -10.6119
        54        2.0000           -0.3630608              -9.8794 (HOMO)
        55                         -0.2886862              -7.8556 (LUMO)
        56                         -0.2671447              -7.2694
        57                         -0.2349142              -6.3923
        58                         -0.2299313              -6.2567
        59                         -0.2186084              -5.9486
        60                         -0.2064431              -5.6176
        61                         -0.1927418              -5.2448
        62                         -0.1786170              -4.8604
        63                         -0.1677116              -4.5637
        64                         -0.1251384              -3.4052
        65                         -0.1041723              -2.8347
       ...                                ...                  ...
       110                          0.7132009              19.4072
      -------------------------------------------------------------
                  HL-Gap            0.0743746 Eh            2.0238 eV
             Fermi-level           -0.3258735 Eh           -8.8675 eV

     #   Z        covCN         q      C6AA      α(0)
     1   6 C      2.920    -0.026    28.646     8.777
     2   6 C      2.918    -0.027    28.667     8.780
     3   6 C      2.924    -0.029    28.730     8.790
     4   6 C      2.996     0.007    27.852     8.657
     5   6 C      3.028     0.117    25.404     8.267
     6   7 N      1.939    -0.243    27.187     7.732
     7   6 C      3.210     0.071    25.807     8.270
     8   6 C      2.994     0.021    27.531     8.607
     9   6 C      2.923    -0.038    28.951     8.824
    10   6 C      2.922    -0.038    28.949     8.823
    11   6 C      2.979     0.007    27.855     8.657
    12   6 C      2.923    -0.041    29.025     8.835
    13   6 C      2.982     0.013    27.717     8.636
    14   6 C      2.917    -0.035    28.859     8.809
    15   6 C      2.915    -0.029    28.726     8.789
    16   6 C      2.915    -0.029    28.720     8.788
    17   6 C      2.917    -0.034    28.844     8.807
    18   6 C      2.984     0.014    27.698     8.633
    19   6 C      2.920    -0.036    28.906     8.817
    20   6 C      2.981     0.003    27.956     8.673
    21  16 S      2.251    -0.092   144.893    20.259
    22   6 C      2.926    -0.026    28.652     8.778
    23   6 C      2.918    -0.026    28.655     8.778
    24   1 H      0.926     0.037     2.495     2.470
    25   1 H      0.926     0.037     2.494     2.470
    26   1 H      0.926     0.044     2.402     2.424
    27   1 H      0.926     0.039     2.459     2.452
    28   1 H      0.926     0.038     2.475     2.460
    29   1 H      0.925     0.034     2.536     2.490
    30   1 H      0.926     0.031     2.569     2.506
    31   1 H      0.926     0.030     2.579     2.512
    32   1 H      0.926     0.031     2.574     2.509
    33   1 H      0.926     0.034     2.533     2.489
    34   1 H      0.926     0.050     2.315     2.379
    35   1 H      0.926     0.054     2.265     2.354
    36   1 H      0.926     0.038     2.475     2.460

 Mol. C6AA /au·bohr⁶  :      22238.957413
 Mol. C8AA /au·bohr⁸  :     606999.931002
 Mol. α(0) /au        :        242.761335


Wiberg/Mayer (AO) data.
largest (>0.10) Wiberg bond orders for each atom
          total WBO             WBO to atom ...
     1  C   3.967        C    2 1.430    C   23 1.426    H   24 0.971
     2  C   3.992        C    3 1.459    C    1 1.430    H   25 0.971    C   22 0.105
     3  C   3.982        C    2 1.459    C    4 1.370    H   26 0.963    C   23 0.104
     4  C   3.988        C    3 1.370    C   22 1.354    C    5 1.104
     5  C   3.944        N    6 1.593    C    4 1.104    S   21 1.071
     6  N   3.137        C    5 1.593    C    7 1.240    S   21 0.154
     7  C   3.971        C    8 1.341    N    6 1.240    C   20 1.167
     8  C   3.940        C    7 1.341    C    9 1.264    S   21 1.138
     9  C   3.977        C   10 1.599    C    8 1.264    H   27 0.968
    10  C   3.973        C    9 1.599    C   11 1.220    H   28 0.967
    11  C   3.989        C   12 1.391    C   10 1.220    C   20 1.202
    12  C   3.981        C   11 1.391    C   13 1.360    H   29 0.966    C   19 0.127
    13  C   3.986        C   12 1.360    C   14 1.247    C   18 1.207
    14  C   3.984        C   15 1.590    C   13 1.247    H   30 0.968    C   17 0.119
    15  C   3.981        C   14 1.590    C   16 1.287    H   31 0.971
    16  C   3.978        C   17 1.588    C   15 1.287    H   32 0.971
    17  C   3.987        C   16 1.588    C   18 1.249    H   33 0.968    C   14 0.119
    18  C   3.984        C   19 1.353    C   17 1.249    C   13 1.207
    19  C   3.989        C   20 1.407    C   18 1.353    H   34 0.965    C   12 0.127
    20  C   3.986        C   19 1.407    C   11 1.202    C    7 1.167
    21  S   2.566        C    8 1.138    C    5 1.071    N    6 0.154
    22  C   3.982        C   23 1.465    C    4 1.354    H   35 0.967    C    2 0.105
    23  C   3.992        C   22 1.465    C    1 1.426    H   36 0.970    C    3 0.104
    24  H   0.998        C    1 0.971
    25  H   0.998        C    2 0.971
    26  H   0.998        C    3 0.963
    27  H   0.998        C    9 0.968
    28  H   0.998        C   10 0.967
    29  H   0.998        C   12 0.966
    30  H   0.999        C   14 0.968
    31  H   0.999        C   15 0.971
    32  H   0.999        C   16 0.971
    33  H   0.998        C   17 0.968
    34  H   0.996        C   19 0.965
    35  H   0.997        C   22 0.967
    36  H   0.998        C   23 0.970

molecular dipole:
                 x           y           z       tot (Debye)
 q only:        0.078       0.260      -0.131
   full:       -0.026       0.046      -0.021       0.145
molecular quadrupole (traceless):
                xx          xy          yy          xz          yz          zz
 q only:        9.226       2.909      -2.379      -2.559      -3.214      -6.847
  q+dip:       13.594       3.050       0.342      -3.559      -9.514     -13.937
   full:        9.534       3.674      -1.607      -3.058      -4.468      -7.927


           -------------------------------------------------
          | TOTAL ENERGY              -57.784456351907 Eh   |
          | GRADIENT NORM               0.000189496669 Eh/α |
          | HOMO-LUMO GAP               2.023834562687 eV   |
           -------------------------------------------------

------------------------------------------------------------------------
 * finished run on 2026/01/19 at 14:08:36.669     
------------------------------------------------------------------------
 total:
 * wall-time:     0 d,  0 h,  0 min,  0.403 sec
 *  cpu-time:     0 d,  0 h,  0 min,  0.137 sec
 * ratio c/w:     0.341 speedup
 SCF:
 * wall-time:     0 d,  0 h,  0 min,  0.083 sec
 *  cpu-time:     0 d,  0 h,  0 min,  0.083 sec
 * ratio c/w:     1.000 speedup


-------------------------   --------------------
FINAL SINGLE POINT ENERGY         0.000000000000
-------------------------   --------------------

                                *** OPTIMIZATION RUN DONE ***

Timings for individual modules:

Sum of individual times         ...       11.789 sec (=   0.196 min)
Geometry relaxation             ...        3.672 sec (=   0.061 min)  31.1 %
XTB module                      ...        8.118 sec (=   0.135 min)  68.9 %
                             ****ORCA TERMINATED NORMALLY****
TOTAL RUN TIME: 0 days 0 hours 0 minutes 16 seconds 48 msec
