 Entering Gaussian System, Link 0=g16
 Initial command:
 /appl/Gaussian16/AVX_revB01/g16/l1.exe "/home/junhkim/WORK/Review_DD/TADF-Design/data/td_dft/results/mol_1002/Gau-3142896.inp" -scrdir="/home/junhkim/WORK/Review_DD/TADF-Design/data/td_dft/results/mol_1002/"
 Entering Link 1 = /appl/Gaussian16/AVX_revB01/g16/l1.exe PID=   3142898.
  
 Copyright (c) 1988-2017, Gaussian, Inc.  All Rights Reserved.
  
 This is part of the Gaussian(R) 16 program.  It is based on
 the Gaussian(R) 09 system (copyright 2009, Gaussian, Inc.),
 the Gaussian(R) 03 system (copyright 2003, Gaussian, Inc.),
 the Gaussian(R) 98 system (copyright 1998, Gaussian, Inc.),
 the Gaussian(R) 94 system (copyright 1995, Gaussian, Inc.),
 the Gaussian 92(TM) system (copyright 1992, Gaussian, Inc.),
 the Gaussian 90(TM) system (copyright 1990, Gaussian, Inc.),
 the Gaussian 88(TM) system (copyright 1988, Gaussian, Inc.),
 the Gaussian 86(TM) system (copyright 1986, Carnegie Mellon
 University), and the Gaussian 82(TM) system (copyright 1983,
 Carnegie Mellon University). Gaussian is a federally registered
 trademark of Gaussian, Inc.
  
 This software contains proprietary and confidential information,
 including trade secrets, belonging to Gaussian, Inc.
  
 This software is provided under written license and may be
 used, copied, transmitted, or stored only in accord with that
 written license.
  
 The following legend is applicable only to US Government
 contracts under FAR:
  
                    RESTRICTED RIGHTS LEGEND
  
 Use, reproduction and disclosure by the US Government is
 subject to restrictions as set forth in subparagraphs (a)
 and (c) of the Commercial Computer Software - Restricted
 Rights clause in FAR 52.227-19.
  
 Gaussian, Inc.
 340 Quinnipiac St., Bldg. 40, Wallingford CT 06492
  
  
 ---------------------------------------------------------------
 Warning -- This program may not be used in any manner that
 competes with the business of Gaussian, Inc. or will provide
 assistance to any competitor of Gaussian, Inc.  The licensee
 of this program is prohibited from giving any competitor of
 Gaussian, Inc. access to this program.  By using this program,
 the user acknowledges that Gaussian, Inc. is engaged in the
 business of creating and licensing software in the field of
 computational chemistry and represents and warrants to the
 licensee that it is not a competitor of Gaussian, Inc. and that
 it will not use this program in any manner prohibited above.
 ---------------------------------------------------------------
  

 Cite this work as:
 Gaussian 16, Revision B.01,
 M. J. Frisch, G. W. Trucks, H. B. Schlegel, G. E. Scuseria, 
 M. A. Robb, J. R. Cheeseman, G. Scalmani, V. Barone, 
 G. A. Petersson, H. Nakatsuji, X. Li, M. Caricato, A. V. Marenich, 
 J. Bloino, B. G. Janesko, R. Gomperts, B. Mennucci, H. P. Hratchian, 
 J. V. Ortiz, A. F. Izmaylov, J. L. Sonnenberg, D. Williams-Young, 
 F. Ding, F. Lipparini, F. Egidi, J. Goings, B. Peng, A. Petrone, 
 T. Henderson, D. Ranasinghe, V. G. Zakrzewski, J. Gao, N. Rega, 
 G. Zheng, W. Liang, M. Hada, M. Ehara, K. Toyota, R. Fukuda, 
 J. Hasegawa, M. Ishida, T. Nakajima, Y. Honda, O. Kitao, H. Nakai, 
 T. Vreven, K. Throssell, J. A. Montgomery, Jr., J. E. Peralta, 
 F. Ogliaro, M. J. Bearpark, J. J. Heyd, E. N. Brothers, K. N. Kudin, 
 V. N. Staroverov, T. A. Keith, R. Kobayashi, J. Normand, 
 K. Raghavachari, A. P. Rendell, J. C. Burant, S. S. Iyengar, 
 J. Tomasi, M. Cossi, J. M. Millam, M. Klene, C. Adamo, R. Cammi, 
 J. W. Ochterski, R. L. Martin, K. Morokuma, O. Farkas, 
 J. B. Foresman, and D. J. Fox, Gaussian, Inc., Wallingford CT, 2016.
 
 ******************************************
 Gaussian 16:  ES64L-G16RevB.01 20-Dec-2017
                19-Jan-2026 
 ******************************************
 %OldChk=/home/junhkim/WORK/Review_DD/TADF-Design/data/td_dft/results/mol_1002/op
 t.chk
 %nprocshared=16
 Will use up to   16 processors via shared memory.
 %mem=60GB
 Copying data from "/home/junhkim/WORK/Review_DD/TADF-Design/data/td_dft/results/mol_1002/opt.chk" to current chk file "/home/junhkim/WORK/Review_DD/TADF-Design/data/td_dft/results/mol_1002/Gau-3142898.chk"
 IOpt=  2 FromEx=T IUOpen= 4 IOptOp= 5 NList=   0 IFRang= 0 IUIn= 4 IUOut= 2.
 -----------------------------------------------------------------
 # b3lyp/6-31g* TD=(Nstates=1,50-50) Geom=Check Guess=Read SCF=XQC
 -----------------------------------------------------------------
 1/29=2,38=1,172=1/1;
 2/12=2,40=1/2;
 3/5=1,6=6,7=1,11=9,14=-4,25=1,30=1,74=-5,116=-2/1,2,3,8;
 4/5=1/1;
 5/5=2,8=3,13=1,38=6/2,8;
 8/6=1,10=2,108=1/1;
 9/41=1,42=1,48=2,70=2/14;
 6/7=2,8=2,9=2,10=2/1;
 99/5=1,9=1/99;
 ------------------
 TD-DFT calculation
 ------------------
 Structure from the checkpoint file:  "/home/junhkim/WORK/Review_DD/TADF-Design/data/td_dft/results/mol_1002/Gau-3142898.chk"
 Charge =  0 Multiplicity = 1
 Redundant internal coordinates found in file.  (old form).
 C,0,6.1402208607,1.2230120162,-1.0003030725
 C,0,6.1710734905,-0.0327924532,-0.3909125684
 C,0,4.9851650508,-0.6569945375,-0.0110799644
 C,0,3.7468277042,-0.0334690699,-0.2353242108
 C,0,2.4765408154,-0.6586876964,0.1504074359
 N,0,1.306529491,-0.1152538794,-0.0392188755
 C,0,0.286056583,-0.9144916268,0.4152280597
 C,0,0.6762704416,-2.1299341719,0.9819497134
 C,0,-0.2639744282,-3.0626592911,1.4962409246
 C,0,-1.5957166864,-2.7516710562,1.4301294123
 C,0,-2.0621153884,-1.5187913054,0.8597978422
 C,0,-3.4240668206,-1.2087093813,0.7960622158
 C,0,-3.8849143576,-0.0060191601,0.2400717107
 C,0,-5.274190227,0.3194655354,0.1705872961
 C,0,-5.6934591202,1.5034061092,-0.3789381653
 C,0,-4.746295539,2.4351131896,-0.8931770954
 C,0,-3.4039993613,2.159290174,-0.8448608089
 C,0,-2.9253687111,0.937679762,-0.2807981922
 C,0,-1.5572129816,0.6292517218,-0.2182648206
 C,0,-1.1088191069,-0.5683870922,0.3360642912
 S,0,2.4147827988,-2.259957165,0.9339177952
 C,0,3.7252860365,1.2318637113,-0.8499495425
 C,0,4.9125023662,1.8511484101,-1.2274718619
 H,0,7.0660266393,1.7087433122,-1.2960653336
 H,0,7.120579024,-0.5289449505,-0.210179699
 H,0,5.0270640383,-1.6346059232,0.462169963
 H,0,0.0684341808,-3.9999850935,1.9312710345
 H,0,-2.3338215431,-3.4494453237,1.8170954127
 H,0,-4.1477847075,-1.9202012095,1.1887841998
 H,0,-5.9950094595,-0.3936232042,0.5639012277
 H,0,-6.7533748589,1.7383488752,-0.4254367685
 H,0,-5.0962095182,3.3687274557,-1.3252781728
 H,0,-2.6787648332,2.8684633319,-1.2365513014
 H,0,-0.8260137802,1.3316885904,-0.6070578216
 H,0,2.7671282258,1.7098592189,-1.0212887095
 H,0,4.8806256823,2.828563177,-1.7012675501
 Recover connectivity data from disk.
                           ----------------------------
                           !    Current Parameters    !
                           ! (Angstroms and Degrees)  !
 --------------------------                            --------------------------
 ! Name  Definition              Value                                          !
 --------------------------------------------------------------------------------
 ! R1    R(1,2)                  1.3962                                         !
 ! R2    R(1,23)                 1.3977                                         !
 ! R3    R(1,24)                 1.0865                                         !
 ! R4    R(2,3)                  1.3929                                         !
 ! R5    R(2,25)                 1.0865                                         !
 ! R6    R(3,4)                  1.4045                                         !
 ! R7    R(3,26)                 1.0869                                         !
 ! R8    R(4,5)                  1.4674                                         !
 ! R9    R(4,22)                 1.4069                                         !
 ! R10   R(5,6)                  1.3039                                         !
 ! R11   R(5,21)                 1.7838                                         !
 ! R12   R(6,7)                  1.3736                                         !
 ! R13   R(7,8)                  1.3967                                         !
 ! R14   R(7,20)                 1.4394                                         !
 ! R15   R(8,9)                  1.4208                                         !
 ! R16   R(8,21)                 1.744                                          !
 ! R17   R(9,10)                 1.3692                                         !
 ! R18   R(9,27)                 1.0855                                         !
 ! R19   R(10,11)                1.4362                                         !
 ! R20   R(10,28)                1.0869                                         !
 ! R21   R(11,12)                1.3983                                         !
 ! R22   R(11,20)                1.4444                                         !
 ! R23   R(12,13)                1.4028                                         !
 ! R24   R(12,29)                1.0882                                         !
 ! R25   R(13,14)                1.4286                                         !
 ! R26   R(13,18)                1.4431                                         !
 ! R27   R(14,15)                1.3709                                         !
 ! R28   R(14,30)                1.0876                                         !
 ! R29   R(15,16)                1.4247                                         !
 ! R30   R(15,31)                1.0866                                         !
 ! R31   R(16,17)                1.3712                                         !
 ! R32   R(16,32)                1.0866                                         !
 ! R33   R(17,18)                1.4281                                         !
 ! R34   R(17,33)                1.0873                                         !
 ! R35   R(18,19)                1.4039                                         !
 ! R36   R(19,20)                1.3938                                         !
 ! R37   R(19,34)                1.0859                                         !
 ! R38   R(22,23)                1.3912                                         !
 ! R39   R(22,35)                1.0844                                         !
 ! R40   R(23,36)                1.0867                                         !
 ! A1    A(2,1,23)             119.6422                                         !
 ! A2    A(2,1,24)             120.1379                                         !
 ! A3    A(23,1,24)            120.2199                                         !
 ! A4    A(1,2,3)              120.2162                                         !
 ! A5    A(1,2,25)             120.1768                                         !
 ! A6    A(3,2,25)             119.607                                          !
 ! A7    A(2,3,4)              120.5426                                         !
 ! A8    A(2,3,26)             119.2717                                         !
 ! A9    A(4,3,26)             120.1858                                         !
 ! A10   A(3,4,5)              122.1499                                         !
 ! A11   A(3,4,22)             118.8517                                         !
 ! A12   A(5,4,22)             118.9984                                         !
 ! A13   A(4,5,6)              124.1223                                         !
 ! A14   A(4,5,21)             121.8646                                         !
 ! A15   A(6,5,21)             114.0131                                         !
 ! A16   A(5,6,7)              112.0874                                         !
 ! A17   A(6,7,8)              115.661                                          !
 ! A18   A(6,7,20)             124.1852                                         !
 ! A19   A(8,7,20)             120.1538                                         !
 ! A20   A(7,8,9)              122.2282                                         !
 ! A21   A(7,8,21)             109.4026                                         !
 ! A22   A(9,8,21)             128.3692                                         !
 ! A23   A(8,9,10)             118.4968                                         !
 ! A24   A(8,9,27)             120.6169                                         !
 ! A25   A(10,9,27)            120.8862                                         !
 ! A26   A(9,10,11)            122.006                                          !
 ! A27   A(9,10,28)            119.8349                                         !
 ! A28   A(11,10,28)           118.1591                                         !
 ! A29   A(10,11,12)           121.6525                                         !
 ! A30   A(10,11,20)           119.6356                                         !
 ! A31   A(12,11,20)           118.7119                                         !
 ! A32   A(11,12,13)           121.8818                                         !
 ! A33   A(11,12,29)           119.1002                                         !
 ! A34   A(13,12,29)           119.018                                          !
 ! A35   A(12,13,14)           122.2814                                         !
 ! A36   A(12,13,18)           119.0287                                         !
 ! A37   A(14,13,18)           118.6899                                         !
 ! A38   A(13,14,15)           120.9083                                         !
 ! A39   A(13,14,30)           118.527                                          !
 ! A40   A(15,14,30)           120.5646                                         !
 ! A41   A(14,15,16)           120.4073                                         !
 ! A42   A(14,15,31)           120.1441                                         !
 ! A43   A(16,15,31)           119.4486                                         !
 ! A44   A(15,16,17)           120.4346                                         !
 ! A45   A(15,16,32)           119.4285                                         !
 ! A46   A(17,16,32)           120.1369                                         !
 ! A47   A(16,17,18)           120.9348                                         !
 ! A48   A(16,17,33)           120.5995                                         !
 ! A49   A(18,17,33)           118.4657                                         !
 ! A50   A(13,18,17)           118.6251                                         !
 ! A51   A(13,18,19)           119.2253                                         !
 ! A52   A(17,18,19)           122.1496                                         !
 ! A53   A(18,19,20)           121.333                                          !
 ! A54   A(18,19,34)           119.8775                                         !
 ! A55   A(20,19,34)           118.7895                                         !
 ! A56   A(7,20,11)            117.4796                                         !
 ! A57   A(7,20,19)            122.7011                                         !
 ! A58   A(11,20,19)           119.8193                                         !
 ! A59   A(5,21,8)              88.8359                                         !
 ! A60   A(4,22,23)            120.3867                                         !
 ! A61   A(4,22,35)            118.6205                                         !
 ! A62   A(23,22,35)           120.9927                                         !
 ! A63   A(1,23,22)            120.3606                                         !
 ! A64   A(1,23,36)            120.0577                                         !
 ! A65   A(22,23,36)           119.5818                                         !
 ! D1    D(23,1,2,3)             0.0                                            !
 ! D2    D(23,1,2,25)         -180.0                                            !
 ! D3    D(24,1,2,3)           180.0                                            !
 ! D4    D(24,1,2,25)            0.0                                            !
 ! D5    D(2,1,23,22)            0.0                                            !
 ! D6    D(2,1,23,36)          180.0                                            !
 ! D7    D(24,1,23,22)        -180.0                                            !
 ! D8    D(24,1,23,36)           0.0                                            !
 ! D9    D(1,2,3,4)              0.0                                            !
 ! D10   D(1,2,3,26)          -180.0                                            !
 ! D11   D(25,2,3,4)          -180.0                                            !
 ! D12   D(25,2,3,26)            0.0                                            !
 ! D13   D(2,3,4,5)           -180.0                                            !
 ! D14   D(2,3,4,22)             0.0                                            !
 ! D15   D(26,3,4,5)             0.0                                            !
 ! D16   D(26,3,4,22)          180.0                                            !
 ! D17   D(3,4,5,6)            179.9999                                         !
 ! D18   D(3,4,5,21)             0.0002                                         !
 ! D19   D(22,4,5,6)            -0.0001                                         !
 ! D20   D(22,4,5,21)         -179.9998                                         !
 ! D21   D(3,4,22,23)            0.0                                            !
 ! D22   D(3,4,22,35)         -180.0                                            !
 ! D23   D(5,4,22,23)          180.0                                            !
 ! D24   D(5,4,22,35)            0.0                                            !
 ! D25   D(4,5,6,7)            179.9999                                         !
 ! D26   D(21,5,6,7)            -0.0004                                         !
 ! D27   D(4,5,21,8)          -179.9998                                         !
 ! D28   D(6,5,21,8)             0.0005                                         !
 ! D29   D(5,6,7,8)              0.0                                            !
 ! D30   D(5,6,7,20)          -179.9998                                         !
 ! D31   D(6,7,8,9)           -179.9999                                         !
 ! D32   D(6,7,8,21)             0.0003                                         !
 ! D33   D(20,7,8,9)             0.0                                            !
 ! D34   D(20,7,8,21)         -179.9998                                         !
 ! D35   D(6,7,20,11)          179.9998                                         !
 ! D36   D(6,7,20,19)           -0.0001                                         !
 ! D37   D(8,7,20,11)            0.0                                            !
 ! D38   D(8,7,20,19)         -180.0                                            !
 ! D39   D(7,8,9,10)             0.0                                            !
 ! D40   D(7,8,9,27)          -179.9999                                         !
 ! D41   D(21,8,9,10)          179.9998                                         !
 ! D42   D(21,8,9,27)           -0.0001                                         !
 ! D43   D(7,8,21,5)            -0.0004                                         !
 ! D44   D(9,8,21,5)           179.9998                                         !
 ! D45   D(8,9,10,11)            0.0                                            !
 ! D46   D(8,9,10,28)         -180.0                                            !
 ! D47   D(27,9,10,11)         179.9999                                         !
 ! D48   D(27,9,10,28)           0.0                                            !
 ! D49   D(9,10,11,12)        -180.0                                            !
 ! D50   D(9,10,11,20)           0.0                                            !
 ! D51   D(28,10,11,12)         -0.0001                                         !
 ! D52   D(28,10,11,20)        180.0                                            !
 ! D53   D(10,11,12,13)       -180.0                                            !
 ! D54   D(10,11,12,29)          0.0                                            !
 ! D55   D(20,11,12,13)          0.0                                            !
 ! D56   D(20,11,12,29)       -180.0                                            !
 ! D57   D(10,11,20,7)           0.0                                            !
 ! D58   D(10,11,20,19)        180.0                                            !
 ! D59   D(12,11,20,7)        -180.0                                            !
 ! D60   D(12,11,20,19)          0.0                                            !
 ! D61   D(11,12,13,14)        180.0                                            !
 ! D62   D(11,12,13,18)          0.0                                            !
 ! D63   D(29,12,13,14)          0.0                                            !
 ! D64   D(29,12,13,18)       -180.0                                            !
 ! D65   D(12,13,14,15)       -180.0                                            !
 ! D66   D(12,13,14,30)          0.0                                            !
 ! D67   D(18,13,14,15)          0.0                                            !
 ! D68   D(18,13,14,30)        180.0                                            !
 ! D69   D(12,13,18,17)        180.0                                            !
 ! D70   D(12,13,18,19)          0.0                                            !
 ! D71   D(14,13,18,17)          0.0                                            !
 ! D72   D(14,13,18,19)        180.0                                            !
 ! D73   D(13,14,15,16)          0.0                                            !
 ! D74   D(13,14,15,31)       -180.0                                            !
 ! D75   D(30,14,15,16)       -180.0                                            !
 ! D76   D(30,14,15,31)          0.0                                            !
 ! D77   D(14,15,16,17)          0.0                                            !
 ! D78   D(14,15,16,32)        180.0                                            !
 ! D79   D(31,15,16,17)       -180.0                                            !
 ! D80   D(31,15,16,32)          0.0                                            !
 ! D81   D(15,16,17,18)          0.0                                            !
 ! D82   D(15,16,17,33)       -180.0                                            !
 ! D83   D(32,16,17,18)       -180.0                                            !
 ! D84   D(32,16,17,33)          0.0                                            !
 ! D85   D(16,17,18,13)          0.0                                            !
 ! D86   D(16,17,18,19)       -180.0                                            !
 ! D87   D(33,17,18,13)        180.0                                            !
 ! D88   D(33,17,18,19)          0.0                                            !
 ! D89   D(13,18,19,20)          0.0                                            !
 ! D90   D(13,18,19,34)       -180.0                                            !
 ! D91   D(17,18,19,20)        180.0                                            !
 ! D92   D(17,18,19,34)          0.0                                            !
 ! D93   D(18,19,20,7)         180.0                                            !
 ! D94   D(18,19,20,11)          0.0                                            !
 ! D95   D(34,19,20,7)           0.0                                            !
 ! D96   D(34,19,20,11)       -180.0                                            !
 ! D97   D(4,22,23,1)            0.0                                            !
 ! D98   D(4,22,23,36)         180.0                                            !
 ! D99   D(35,22,23,1)         180.0                                            !
 ! D100  D(35,22,23,36)          0.0                                            !
 --------------------------------------------------------------------------------
                          Input orientation:                          
 ---------------------------------------------------------------------
 Center     Atomic      Atomic             Coordinates (Angstroms)
 Number     Number       Type             X           Y           Z
 ---------------------------------------------------------------------
      1          6           0        6.140221    1.223012   -1.000303
      2          6           0        6.171073   -0.032792   -0.390913
      3          6           0        4.985165   -0.656995   -0.011080
      4          6           0        3.746828   -0.033469   -0.235324
      5          6           0        2.476541   -0.658688    0.150407
      6          7           0        1.306529   -0.115254   -0.039219
      7          6           0        0.286057   -0.914492    0.415228
      8          6           0        0.676270   -2.129934    0.981950
      9          6           0       -0.263974   -3.062659    1.496241
     10          6           0       -1.595717   -2.751671    1.430129
     11          6           0       -2.062115   -1.518791    0.859798
     12          6           0       -3.424067   -1.208709    0.796062
     13          6           0       -3.884914   -0.006019    0.240072
     14          6           0       -5.274190    0.319466    0.170587
     15          6           0       -5.693459    1.503406   -0.378938
     16          6           0       -4.746296    2.435113   -0.893177
     17          6           0       -3.403999    2.159290   -0.844861
     18          6           0       -2.925369    0.937680   -0.280798
     19          6           0       -1.557213    0.629252   -0.218265
     20          6           0       -1.108819   -0.568387    0.336064
     21         16           0        2.414783   -2.259957    0.933918
     22          6           0        3.725286    1.231864   -0.849950
     23          6           0        4.912502    1.851148   -1.227472
     24          1           0        7.066027    1.708743   -1.296065
     25          1           0        7.120579   -0.528945   -0.210180
     26          1           0        5.027064   -1.634606    0.462170
     27          1           0        0.068434   -3.999985    1.931271
     28          1           0       -2.333822   -3.449445    1.817095
     29          1           0       -4.147785   -1.920201    1.188784
     30          1           0       -5.995009   -0.393623    0.563901
     31          1           0       -6.753375    1.738349   -0.425437
     32          1           0       -5.096210    3.368727   -1.325278
     33          1           0       -2.678765    2.868463   -1.236551
     34          1           0       -0.826014    1.331689   -0.607058
     35          1           0        2.767128    1.709859   -1.021289
     36          1           0        4.880626    2.828563   -1.701268
 ---------------------------------------------------------------------
                    Distance matrix (angstroms):
                    1          2          3          4          5
     1  C    0.000000
     2  C    1.396193   0.000000
     3  C    2.418086   1.392939   0.000000
     4  C    2.809318   2.429234   1.404475   0.000000
     5  C    4.276386   3.786072   2.513817   1.467418   0.000000
     6  N    5.106781   4.877938   3.718418   2.449531   1.303919
     7  C    6.390922   6.005055   4.725427   3.629925   2.221213
     8  C    6.710166   6.039505   4.660712   3.912192   2.469211
     9  C    8.100212   7.358756   5.967638   5.316093   3.885971
    10  C    9.030495   8.428020   7.054981   6.221345   4.754109
    11  C    8.846230   8.459188   7.152991   6.095022   4.673587
    12  C   10.030743   9.739528   8.465876   7.339392   5.961255
    13  C   10.176069  10.075800   8.897480   7.646584   6.395477
    14  C   11.509829  11.464442  10.307320   9.037040   7.812235
    15  C   11.853299  11.963577  10.901177   9.565648   8.467807
    16  C   10.954310  11.204096  10.248929   8.869037   7.926540
    17  C    9.591294   9.833276   8.888460   7.504269   6.596386
    18  C    9.098572   9.148727   8.074174   6.742655   5.649332
    19  C    7.759808   7.758513   6.670837   5.345310   4.250397
    20  C    7.585748   7.335679   6.104507   4.918326   3.591299
    21  S    5.454464   4.563459   3.173228   2.845825   1.783751
    22  C    2.419627   2.791406   2.420492   1.406874   2.476745
    23  C    1.397660   2.415174   2.788489   2.427949   3.759220
    24  H    1.086520   2.157125   3.402630   3.895838   5.362872
    25  H    2.157487   1.086459   2.148495   3.410033   4.659823
    26  H    3.397635   2.145300   1.086943   2.165443   2.748596
    27  H    8.528799   7.640246   6.254803   5.827346   4.487173
    28  H   10.078640   9.427728   8.044102   7.270187   5.805666
    29  H   10.977930  10.608326   9.297641   8.240919   6.822854
    30  H   12.341963  12.208826  10.998373   9.781199   8.485776
    31  H   12.916689  13.045286  11.987605  10.650340   9.553467
    32  H   11.444085  11.806568  10.934700   9.537413   8.703118
    33  H    8.974287   9.351579   8.524462   7.121229   6.398564
    34  H    6.978172   7.132164   6.170887   4.786723   3.929659
    35  H    3.408110   3.875700   3.397382   2.148661   2.658445
    36  H    2.157713   3.401418   3.875148   3.409650   4.622688
                    6          7          8          9         10
     6  N    0.000000
     7  C    1.373560   0.000000
     8  C    2.344984   1.396689   0.000000
     9  C    3.675774   2.466931   1.420751   0.000000
    10  C    4.187208   2.818922   2.397780   1.369168   0.000000
    11  C    3.758446   2.465103   2.808411   2.453956   1.436245
    12  C    4.926650   3.741205   4.206658   3.730089   2.475002
    13  C    5.200099   4.272353   5.085844   4.902266   3.767661
    14  C    6.598399   5.700776   6.485819   6.188569   4.954745
    15  C    7.192726   6.498580   7.458326   7.337885   6.178179
    16  C    6.623466   6.185171   7.332120   7.485053   6.498202
    17  C    5.292607   4.965126   6.195424   6.527578   5.706401
    18  C    4.367607   3.772034   4.896590   5.122851   4.278616
    19  C    2.964349   2.486383   3.747275   4.271089   3.761559
    20  C    2.485976   1.439352   2.458077   2.877702   2.490136
    21  S    2.602878   2.571146   1.744029   2.852416   4.070886
    22  C    2.884856   4.246859   4.894286   6.313615   7.027117
    23  C    4.275713   5.634823   6.219021   7.639374   8.402720
    24  H    6.170773   7.468459   7.794471   9.181077  10.116977
    25  H    5.831255   6.873898   6.746366   7.991446   9.143573
    26  H    4.049963   4.795615   4.409640   5.577072   6.785721
    27  H    4.528449   3.444708   2.183522   1.085507   2.139820
    28  H    5.273982   3.905763   3.391052   2.129981   1.086936
    29  H    5.874978   4.611810   4.833040   4.060015   2.694929
    30  H    7.331692   6.304379   6.906194   6.390444   5.066016
    31  H    8.279316   7.569536   8.493761   8.297882   7.085538
    32  H    7.401834   7.095359   8.299404   8.524917   7.570007
    33  H    5.120424   5.082252   6.415761   6.962584   6.314277
    34  H    2.638906   2.706861   4.094464   4.904085   4.627786
    35  H    2.535517   3.886710   4.809227   6.188899   6.704410
    36  H    4.919617   6.292859   7.032990   8.449703   9.104267
                   11         12         13         14         15
    11  C    0.000000
    12  C    1.398258   0.000000
    13  C    2.448497   1.402843   0.000000
    14  C    3.764522   2.479817   1.428585   0.000000
    15  C    4.884138   3.726438   2.435646   1.370941   0.000000
    16  C    5.090295   4.228388   2.825837   2.426156   1.424654
    17  C    4.270222   3.746525   2.469195   2.813131   2.426704
    18  C    2.842607   2.452614   1.443122   2.470405   2.827013
    19  C    2.455857   2.809289   2.455979   3.750079   4.230661
    20  C    1.444416   2.445809   2.834110   4.262157   5.081582
    21  S    4.538440   5.934332   6.726652   8.145944   9.034937
    22  C    6.631995   7.731688   7.786890   9.102996   9.434424
    23  C    8.022374   9.108008   9.110285  10.395640  10.645532
    24  H    9.919058  11.087407  11.190319  12.504484  12.794052
    25  H    9.297662  10.614337  11.027106  12.429605  12.975304
    26  H    7.101266   8.468441   9.062283  10.489006  11.201973
    27  H    3.441456   4.612752   5.868636   7.092341   8.296011
    28  H    2.172019   2.692961   4.092686   5.055833   6.374987
    29  H    2.149274   1.088218   2.152498   2.705849   4.070375
    30  H    4.101367   2.707030   2.169701   1.087553   2.139766
    31  H    5.853948   4.611020   3.422541   2.134587   1.086638
    32  H    6.153708   5.314986   3.912349   3.401072   2.175245
    33  H    4.901320   4.616311   3.449328   3.900469   3.418664
    34  H    3.435818   3.895157   3.444410   4.627699   4.875813
    35  H    6.106084   7.081787   6.984622   8.247216   8.487448
    36  H    8.582552   9.565780   9.414794  10.626368  10.738523
                   16         17         18         19         20
    16  C    0.000000
    17  C    1.371194   0.000000
    18  C    2.435793   1.428141   0.000000
    19  C    3.726512   2.478762   1.403883   0.000000
    20  C    4.874760   3.755351   2.438977   1.393799   0.000000
    21  S    8.755741   7.520108   6.341738   5.044978   3.954062
    22  C    8.556715   7.189357   6.681443   5.354154   5.293024
    23  C    9.682208   8.330999   7.947505   6.660987   6.674961
    24  H   11.841490  10.489424  10.072402   8.757124   8.641601
    25  H   12.250504  10.881001  10.152686   8.754745   8.247602
    26  H   10.673244   9.337280   8.391057   6.995766   6.229108
    27  H    8.518780   7.596142   6.183578   5.356591   3.963140
    28  H    6.913294   6.299937   4.898770   4.624022   3.463319
    29  H    4.864313   4.618569   3.438235   3.897507   3.433634
    30  H    3.418203   3.900681   3.450881   4.620833   4.894620
    31  H    2.175461   3.401680   3.913518   5.317247   6.145073
    32  H    1.086640   2.134740   3.422496   4.610282   5.844674
    33  H    2.140183   1.087342   2.168456   2.703489   4.092651
    34  H    4.082649   2.717993   2.160782   1.085923   2.140034
    35  H    7.549433   6.189986   5.792159   4.529071   4.696358
    36  H    9.668786   8.355619   8.156391   6.962904   7.180769
                   21         22         23         24         25
    21  S    0.000000
    22  C    4.134297   0.000000
    23  C    5.273651   1.391229   0.000000
    24  H    6.508262   3.403966   2.159317   0.000000
    25  H    5.142945   3.877856   3.402254   2.487845   0.000000
    26  H    2.727201   3.410708   3.875371   4.292638   2.461167
    27  H    3.086707   6.962758   8.226689   9.590181   8.146575
    28  H    4.974347   8.108056   9.480237  11.164937  10.100735
    29  H    6.576297   8.722224  10.106937  12.045467  11.439786
    30  H    8.622338   9.956170  11.279266  13.359270  13.139109
    31  H   10.094028  10.499480  11.693959  13.846831  14.059643
    32  H    9.654070   9.089054  10.123583  12.275031  12.871877
    33  H    7.546911   6.621162   7.659135   9.813738  10.422234
    34  H    5.077134   4.558870   5.795284   7.931028   8.171157
    35  H    4.439192   1.084391   2.159885   4.307671   4.962124
    36  H    6.238399   2.146858   1.086664   2.488807   4.302743
                   26         27         28         29         30
    26  H    0.000000
    27  H    5.686940   0.000000
    28  H    7.701435   2.467177   0.000000
    29  H    9.208006   4.759547   2.454348   0.000000
    30  H   11.092182   7.186160   4.930805   2.476521   0.000000
    31  H   12.285903   9.220609   7.174581   4.772819   2.469658
    32  H   11.432803   9.569565   7.999549   5.932351   4.304895
    33  H    9.085323   8.047222   7.025647   5.565212   4.988017
    34  H    6.648359   5.972428   5.568594   4.983372   5.573721
    35  H    4.300396   6.971577   7.790670   8.116513   9.149455
    36  H    4.962034   9.109423  10.190217  10.602611  11.566889
                   31         32         33         34         35
    31  H    0.000000
    32  H    2.492799   0.000000
    33  H    4.305521   2.470258   0.000000
    34  H    5.944070   4.785388   2.488097   0.000000
    35  H    9.539173   8.042160   5.571934   3.636656   0.000000
    36  H   11.754415   9.998519   7.573766   6.000305   2.486110
                   36
    36  H    0.000000
 Stoichiometry    C21H13NS
 Framework group  C1[X(C21H13NS)]
 Deg. of freedom   102
 Full point group                 C1      NOp   1
 Largest Abelian subgroup         C1      NOp   1
 Largest concise Abelian subgroup C1      NOp   1
                         Standard orientation:                         
 ---------------------------------------------------------------------
 Center     Atomic      Atomic             Coordinates (Angstroms)
 Number     Number       Type             X           Y           Z
 ---------------------------------------------------------------------
      1          6           0        5.888949   -2.042280    0.000005
      2          6           0        5.975061   -0.648746    0.000003
      3          6           0        4.816904    0.125174    0.000001
      4          6           0        3.551420   -0.484004    0.000001
      5          6           0        2.308949    0.296754   -0.000001
      6          7           0        1.115299   -0.228037   -0.000004
      7          6           0        0.130242    0.729215   -0.000003
      8          6           0        0.573854    2.053582   -0.000000
      9          6           0       -0.325120    3.153755    0.000004
     10          6           0       -1.670232    2.898227    0.000006
     11          6           0       -2.190778    1.559635    0.000003
     12          6           0       -3.566053    1.307158    0.000004
     13          6           0       -4.079720    0.001741    0.000002
     14          6           0       -5.482991   -0.266005    0.000004
     15          6           0       -5.954264   -1.553398    0.000002
     16          6           0       -5.048329   -2.652907   -0.000003
     17          6           0       -3.694212   -2.437174   -0.000004
     18          6           0       -3.161933   -1.111933   -0.000002
     19          6           0       -1.780529   -0.861714   -0.000004
     20          6           0       -1.279534    0.438933   -0.000002
     21         16           0        2.317676    2.080483   -0.000008
     22          6           0        3.474197   -1.888757    0.000002
     23          6           0        4.633878   -2.657301    0.000004
     24          1           0        6.793159   -2.644718    0.000006
     25          1           0        6.946176   -0.161584    0.000003
     26          1           0        4.901816    1.208796   -0.000000
     27          1           0        0.048461    4.172952    0.000005
     28          1           0       -2.377454    3.723617    0.000008
     29          1           0       -4.258287    2.146819    0.000008
     30          1           0       -6.172257    0.575235    0.000007
     31          1           0       -7.024268   -1.742801    0.000003
     32          1           0       -5.439247   -3.666795   -0.000004
     33          1           0       -3.000360   -3.274361   -0.000007
     34          1           0       -1.080417   -1.691818   -0.000007
     35          1           0        2.495231   -2.355156    0.000002
     36          1           0        4.558994   -3.741382    0.000005
 ---------------------------------------------------------------------
 Rotational constants (GHZ):           0.5269482           0.1229324           0.0996783
 Standard basis: 6-31G(d) (6D, 7F)
 There are   375 symmetry adapted cartesian basis functions of A   symmetry.
 There are   375 symmetry adapted basis functions of A   symmetry.
   375 basis functions,   720 primitive gaussians,   375 cartesian basis functions
    81 alpha electrons       81 beta electrons
       nuclear repulsion energy      1766.5460394779 Hartrees.
 NAtoms=   36 NActive=   36 NUniq=   36 SFac= 1.00D+00 NAtFMM=   60 NAOKFM=F Big=F
 Integral buffers will be    131072 words long.
 Regular integral format.
 Two-electron integral symmetry is turned on.
 One-electron integrals computed using PRISM.
 NBasis=   375 RedAO= T EigKep=  2.12D-04  NBF=   375
 NBsUse=   375 1.00D-06 EigRej= -1.00D+00 NBFU=   375
 Initial guess from the checkpoint file:  "/home/junhkim/WORK/Review_DD/TADF-Design/data/td_dft/results/mol_1002/Gau-3142898.chk"
 B after Tr=     0.000000   -0.000000   -0.000000
         Rot=    1.000000   -0.000000   -0.000000    0.000000 Ang=   0.00 deg.
 Requested convergence on RMS density matrix=1.00D-08 within  32 cycles.
 Requested convergence on MAX density matrix=1.00D-06.
 Requested convergence on             energy=1.00D-06.
 No special actions if energy rises.
 SCF Done:  E(RB3LYP) =  -1261.04881408     A.U. after    1 cycles
            NFock=  1  Conv=0.45D-08     -V/T= 2.0077
 QCSCF skips out because SCF is already converged.
 DoSCS=F DFT=T ScalE2(SS,OS)=  1.000000  1.000000
 ExpMin= 1.17D-01 ExpMax= 2.19D+04 ExpMxC= 3.30D+03 IAcc=3 IRadAn=         5 AccDes= 0.00D+00
 HarFok:  IExCor=  205 AccDes= 0.00D+00 IRadAn=         5 IDoV=-2 UseB2=F ITyADJ=14
 ICtDFT= 12500011 ScaDFX=  1.000000  1.000000  1.000000  1.000000
 GSVD:  LWork=        -945 too small for GESVD, short by        4050 words or        4050 for optimal perf.
 Range of M.O.s used for correlation:    28   375
 NBasis=   375 NAE=    81 NBE=    81 NFC=    27 NFV=     0
 NROrb=    348 NOA=    54 NOB=    54 NVA=   294 NVB=   294

 **** Warning!!: The largest alpha MO coefficient is  0.10421452D+02

 Orbital symmetries:
       Occupied  (A) (A) (A) (A) (A) (A) (A) (A) (A) (A) (A) (A)
                 (A) (A) (A) (A) (A) (A) (A) (A) (A) (A) (A) (A)
                 (A) (A) (A) (A) (A) (A) (A) (A) (A) (A) (A) (A)
                 (A) (A) (A) (A) (A) (A) (A) (A) (A) (A) (A) (A)
                 (A) (A) (A) (A) (A) (A) (A) (A) (A) (A) (A) (A)
                 (A) (A) (A) (A) (A) (A) (A) (A) (A) (A) (A) (A)
                 (A) (A) (A) (A) (A) (A) (A) (A) (A)
       Virtual   (A) (A) (A) (A) (A) (A) (A) (A) (A) (A) (A) (A)
                 (A) (A) (A) (A) (A) (A) (A) (A) (A) (A) (A) (A)
                 (A) (A) (A) (A) (A) (A) (A) (A) (A) (A) (A) (A)
                 (A) (A) (A) (A) (A) (A) (A) (A) (A) (A) (A) (A)
                 (A) (A) (A) (A) (A) (A) (A) (A) (A) (A) (A) (A)
                 (A) (A) (A) (A) (A) (A) (A) (A) (A) (A) (A) (A)
                 (A) (A) (A) (A) (A) (A) (A) (A) (A) (A) (A) (A)
                 (A) (A) (A) (A) (A) (A) (A) (A) (A) (A) (A) (A)
                 (A) (A) (A) (A) (A) (A) (A) (A) (A) (A) (A) (A)
                 (A) (A) (A) (A) (A) (A) (A) (A) (A) (A) (A) (A)
                 (A) (A) (A) (A) (A) (A) (A) (A) (A) (A) (A) (A)
                 (A) (A) (A) (A) (A) (A) (A) (A) (A) (A) (A) (A)
                 (A) (A) (A) (A) (A) (A) (A) (A) (A) (A) (A) (A)
                 (A) (A) (A) (A) (A) (A) (A) (A) (A) (A) (A) (A)
                 (A) (A) (A) (A) (A) (A) (A) (A) (A) (A) (A) (A)
                 (A) (A) (A) (A) (A) (A) (A) (A) (A) (A) (A) (A)
                 (A) (A) (A) (A) (A) (A) (A) (A) (A) (A) (A) (A)
                 (A) (A) (A) (A) (A) (A) (A) (A) (A) (A) (A) (A)
                 (A) (A) (A) (A) (A) (A) (A) (A) (A) (A) (A) (A)
                 (A) (A) (A) (A) (A) (A) (A) (A) (A) (A) (A) (A)
                 (A) (A) (A) (A) (A) (A) (A) (A) (A) (A) (A) (A)
                 (A) (A) (A) (A) (A) (A) (A) (A) (A) (A) (A) (A)
                 (A) (A) (A) (A) (A) (A) (A) (A) (A) (A) (A) (A)
                 (A) (A) (A) (A) (A) (A) (A) (A) (A) (A) (A) (A)
                 (A) (A) (A) (A) (A) (A)
     8 initial guesses have been made.
 Convergence on wavefunction:    0.001000000000000
 Iteration     1 Dimension     8 NMult     0 NNew      8
 CISAX will form     8 AO SS matrices at one time.
 New state      1 was old state      2
 New state      2 was old state      4
 New state      3 was old state      1
 New state      4 was old state      6
 Vector   2 SDiff=2.45D+00 TDiff=1.01D+01 assumed to be singlet.
 Vector   4 SDiff=2.37D+00 TDiff=6.76D+00 assumed to be singlet.
 Iteration     2 Dimension    12 NMult     8 NNew      4
 New state      2 was old state      3
 Iteration     3 Dimension    16 NMult    12 NNew      4
 Iteration     4 Dimension    20 NMult    16 NNew      4
 Iteration     5 Dimension    24 NMult    20 NNew      4
 Iteration     6 Dimension    28 NMult    24 NNew      4
 Iteration     7 Dimension    30 NMult    28 NNew      2
 ***********************************************************************
 Excited states from <AA,BB:AA,BB> singles matrix:
 ***********************************************************************
 
 Ground to excited state transition densities written to RWF  633
 Ground to excited state transition electric dipole moments (Au):
       state          X           Y           Z        Dip. S.      Osc.
         1         0.0000      0.0000      0.0000      0.0000      0.0000
         2        -1.7176      0.7089      0.0000      3.4528      0.2531
 Ground to excited state transition velocity dipole moments (Au):
       state          X           Y           Z        Dip. S.      Osc.
         1        -0.0000     -0.0000     -0.0000      0.0000      0.0000
         2         0.1985     -0.0854      0.0000      0.0467      0.2830
 Ground to excited state transition magnetic dipole moments (Au):
       state          X           Y           Z
         1         0.0000      0.0000      0.0000
         2        -0.0000     -0.0000     -0.3151
 Ground to excited state transition velocity quadrupole moments (Au):
       state          XX          YY          ZZ          XY          XZ          YZ
         1        -0.0000      0.0000     -0.0000      0.0000     -0.0000      0.0000
         2         0.0491     -0.1514     -0.0013     -0.0286      0.0000     -0.0000
 <0|del|b> * <b|rxdel|0> + <0|del|b> * <b|delr+rdel|0>
 Rotatory Strengths (R) in cgs (10**-40 erg-esu-cm/Gauss)
       state          XX          YY          ZZ    R(velocity)    E-M Angle
         1        -0.0000     -0.0000      0.0000     -0.0000       90.00
         2         0.0004     -0.0007      0.0002     -0.0000       90.00
 1/2[<0|r|b>*<b|rxdel|0> + (<0|rxdel|b>*<b|r|0>)*]
 Rotatory Strengths (R) in cgs (10**-40 erg-esu-cm/Gauss)
       state          XX          YY          ZZ     R(length)
         1        -0.0000     -0.0000     -0.0000     -0.0000
         2        -0.0001      0.0009      0.0001      0.0003
  1/2[<0|del|b>*<b|r|0> + (<0|r|b>*<b|del|0>)*] (Au)
       state          X           Y           Z        Dip. S.   Osc.(frdel)
         1        -0.0000     -0.0000     -0.0000      0.0000      0.0000
         2        -0.3409     -0.0606      0.0000      0.4015      0.2676

 Excitation energies and oscillator strengths:
 
 Excited State   1:      Triplet-A      1.8126 eV  684.02 nm  f=0.0000  <S**2>=2.000
      79 -> 83         0.12729
      81 -> 82         0.64728
      81 -> 83        -0.22255
      81 <- 82         0.10552
 This state for optimization and/or second-order correction.
 Total Energy, E(TD-HF/TD-DFT) =  -1260.98220302    
 Copying the excited state density for this state as the 1-particle RhoCI density.
 
 Excited State   2:      Singlet-A      2.9925 eV  414.31 nm  f=0.2531  <S**2>=0.000
      81 -> 82         0.70084
 SavETr:  write IOETrn=   770 NScale= 10 NData=  16 NLR=1 NState=    2 LETran=      46.

 **********************************************************************

            Population analysis using the SCF Density.

 **********************************************************************

 Orbital symmetries:
       Occupied  (A) (A) (A) (A) (A) (A) (A) (A) (A) (A) (A) (A)
                 (A) (A) (A) (A) (A) (A) (A) (A) (A) (A) (A) (A)
                 (A) (A) (A) (A) (A) (A) (A) (A) (A) (A) (A) (A)
                 (A) (A) (A) (A) (A) (A) (A) (A) (A) (A) (A) (A)
                 (A) (A) (A) (A) (A) (A) (A) (A) (A) (A) (A) (A)
                 (A) (A) (A) (A) (A) (A) (A) (A) (A) (A) (A) (A)
                 (A) (A) (A) (A) (A) (A) (A) (A) (A)
       Virtual   (A) (A) (A) (A) (A) (A) (A) (A) (A) (A) (A) (A)
                 (A) (A) (A) (A) (A) (A) (A) (A) (A) (A) (A) (A)
                 (A) (A) (A) (A) (A) (A) (A) (A) (A) (A) (A) (A)
                 (A) (A) (A) (A) (A) (A) (A) (A) (A) (A) (A) (A)
                 (A) (A) (A) (A) (A) (A) (A) (A) (A) (A) (A) (A)
                 (A) (A) (A) (A) (A) (A) (A) (A) (A) (A) (A) (A)
                 (A) (A) (A) (A) (A) (A) (A) (A) (A) (A) (A) (A)
                 (A) (A) (A) (A) (A) (A) (A) (A) (A) (A) (A) (A)
                 (A) (A) (A) (A) (A) (A) (A) (A) (A) (A) (A) (A)
                 (A) (A) (A) (A) (A) (A) (A) (A) (A) (A) (A) (A)
                 (A) (A) (A) (A) (A) (A) (A) (A) (A) (A) (A) (A)
                 (A) (A) (A) (A) (A) (A) (A) (A) (A) (A) (A) (A)
                 (A) (A) (A) (A) (A) (A) (A) (A) (A) (A) (A) (A)
                 (A) (A) (A) (A) (A) (A) (A) (A) (A) (A) (A) (A)
                 (A) (A) (A) (A) (A) (A) (A) (A) (A) (A) (A) (A)
                 (A) (A) (A) (A) (A) (A) (A) (A) (A) (A) (A) (A)
                 (A) (A) (A) (A) (A) (A) (A) (A) (A) (A) (A) (A)
                 (A) (A) (A) (A) (A) (A) (A) (A) (A) (A) (A) (A)
                 (A) (A) (A) (A) (A) (A) (A) (A) (A) (A) (A) (A)
                 (A) (A) (A) (A) (A) (A) (A) (A) (A) (A) (A) (A)
                 (A) (A) (A) (A) (A) (A) (A) (A) (A) (A) (A) (A)
                 (A) (A) (A) (A) (A) (A) (A) (A) (A) (A) (A) (A)
                 (A) (A) (A) (A) (A) (A) (A) (A) (A) (A) (A) (A)
                 (A) (A) (A) (A) (A) (A) (A) (A) (A) (A) (A) (A)
                 (A) (A) (A) (A) (A) (A)
 The electronic state is 1-A.
 Alpha  occ. eigenvalues --  -88.91261 -14.33657 -10.26171 -10.22616 -10.22441
 Alpha  occ. eigenvalues --  -10.21173 -10.20484 -10.20210 -10.20122 -10.20087
 Alpha  occ. eigenvalues --  -10.19848 -10.19832 -10.19810 -10.19776 -10.19747
 Alpha  occ. eigenvalues --  -10.19595 -10.19493 -10.19243 -10.19142 -10.19099
 Alpha  occ. eigenvalues --  -10.19058 -10.18984 -10.18808  -7.97385  -5.93784
 Alpha  occ. eigenvalues --   -5.93447  -5.93061  -0.96787  -0.87829  -0.86252
 Alpha  occ. eigenvalues --   -0.84670  -0.81529  -0.78836  -0.77925  -0.76685
 Alpha  occ. eigenvalues --   -0.75156  -0.74150  -0.72755  -0.69898  -0.64307
 Alpha  occ. eigenvalues --   -0.64027  -0.61692  -0.60592  -0.59658  -0.58964
 Alpha  occ. eigenvalues --   -0.55884  -0.54405  -0.52003  -0.50752  -0.49728
 Alpha  occ. eigenvalues --   -0.48416  -0.47414  -0.45952  -0.45087  -0.44757
 Alpha  occ. eigenvalues --   -0.44238  -0.42982  -0.42673  -0.42251  -0.41872
 Alpha  occ. eigenvalues --   -0.41573  -0.40033  -0.39360  -0.39257  -0.37320
 Alpha  occ. eigenvalues --   -0.36881  -0.36045  -0.35631  -0.34882  -0.34629
 Alpha  occ. eigenvalues --   -0.33250  -0.32940  -0.31655  -0.29578  -0.27927
 Alpha  occ. eigenvalues --   -0.27570  -0.26852  -0.25701  -0.23360  -0.23143
 Alpha  occ. eigenvalues --   -0.19055
 Alpha virt. eigenvalues --   -0.06787  -0.04579  -0.01397  -0.00544   0.01237
 Alpha virt. eigenvalues --    0.01348   0.03802   0.05719   0.07103   0.07888
 Alpha virt. eigenvalues --    0.09991   0.10313   0.11317   0.13177   0.13683
 Alpha virt. eigenvalues --    0.14358   0.15569   0.16204   0.16647   0.16873
 Alpha virt. eigenvalues --    0.17259   0.17990   0.18388   0.19627   0.20152
 Alpha virt. eigenvalues --    0.20908   0.21850   0.22061   0.23991   0.25639
 Alpha virt. eigenvalues --    0.26241   0.28098   0.28957   0.29421   0.29954
 Alpha virt. eigenvalues --    0.31306   0.31689   0.32009   0.33127   0.34244
 Alpha virt. eigenvalues --    0.35137   0.35687   0.37061   0.37946   0.40305
 Alpha virt. eigenvalues --    0.42709   0.44009   0.46976   0.48703   0.49076
 Alpha virt. eigenvalues --    0.50552   0.50608   0.51067   0.51480   0.52007
 Alpha virt. eigenvalues --    0.52758   0.54337   0.54407   0.54812   0.55095
 Alpha virt. eigenvalues --    0.55611   0.55921   0.56447   0.56553   0.57162
 Alpha virt. eigenvalues --    0.57806   0.58246   0.58860   0.59062   0.59095
 Alpha virt. eigenvalues --    0.59172   0.59435   0.59700   0.60850   0.61087
 Alpha virt. eigenvalues --    0.61627   0.61927   0.62070   0.62420   0.62515
 Alpha virt. eigenvalues --    0.62678   0.63542   0.65293   0.65693   0.67035
 Alpha virt. eigenvalues --    0.67461   0.68641   0.69058   0.70140   0.73564
 Alpha virt. eigenvalues --    0.74732   0.75597   0.75817   0.76902   0.78772
 Alpha virt. eigenvalues --    0.80740   0.81423   0.82117   0.82120   0.83064
 Alpha virt. eigenvalues --    0.83424   0.83627   0.84159   0.84375   0.84865
 Alpha virt. eigenvalues --    0.85641   0.85779   0.87057   0.87321   0.88851
 Alpha virt. eigenvalues --    0.90047   0.90231   0.90585   0.91137   0.92980
 Alpha virt. eigenvalues --    0.93664   0.94272   0.94837   0.95628   0.96478
 Alpha virt. eigenvalues --    0.98424   0.99159   1.00271   1.00791   1.01552
 Alpha virt. eigenvalues --    1.02354   1.04120   1.05111   1.06221   1.08201
 Alpha virt. eigenvalues --    1.09229   1.10652   1.11792   1.13245   1.14971
 Alpha virt. eigenvalues --    1.16224   1.17399   1.17675   1.20745   1.22605
 Alpha virt. eigenvalues --    1.22816   1.23728   1.24744   1.24980   1.26418
 Alpha virt. eigenvalues --    1.27846   1.29582   1.31155   1.33381   1.34007
 Alpha virt. eigenvalues --    1.35923   1.38354   1.38942   1.40866   1.41395
 Alpha virt. eigenvalues --    1.42229   1.42768   1.43794   1.44092   1.45596
 Alpha virt. eigenvalues --    1.45929   1.47058   1.47901   1.48366   1.48521
 Alpha virt. eigenvalues --    1.50111   1.50117   1.50138   1.50496   1.53035
 Alpha virt. eigenvalues --    1.53521   1.55176   1.55439   1.56685   1.61204
 Alpha virt. eigenvalues --    1.66696   1.72517   1.74662   1.75422   1.77638
 Alpha virt. eigenvalues --    1.79169   1.79277   1.81886   1.83467   1.85843
 Alpha virt. eigenvalues --    1.86915   1.88114   1.88296   1.88678   1.89618
 Alpha virt. eigenvalues --    1.91221   1.91700   1.92143   1.92334   1.92756
 Alpha virt. eigenvalues --    1.95087   1.95912   1.97085   1.97206   1.97776
 Alpha virt. eigenvalues --    1.99223   2.01150   2.01425   2.04167   2.05071
 Alpha virt. eigenvalues --    2.08766   2.11534   2.12854   2.13335   2.13755
 Alpha virt. eigenvalues --    2.14014   2.14527   2.16192   2.16835   2.19002
 Alpha virt. eigenvalues --    2.19752   2.21590   2.21898   2.24318   2.25655
 Alpha virt. eigenvalues --    2.26103   2.28327   2.29065   2.30417   2.30834
 Alpha virt. eigenvalues --    2.31330   2.32874   2.34199   2.35907   2.37209
 Alpha virt. eigenvalues --    2.37582   2.38436   2.40845   2.44692   2.48540
 Alpha virt. eigenvalues --    2.51000   2.52093   2.55694   2.58347   2.59736
 Alpha virt. eigenvalues --    2.61886   2.64541   2.64602   2.65932   2.66163
 Alpha virt. eigenvalues --    2.66565   2.68012   2.69451   2.70647   2.72290
 Alpha virt. eigenvalues --    2.73915   2.75113   2.75845   2.76582   2.79089
 Alpha virt. eigenvalues --    2.81246   2.85295   2.86662   2.87924   2.90496
 Alpha virt. eigenvalues --    2.92875   2.95815   2.99785   3.02886   3.09822
 Alpha virt. eigenvalues --    3.16453   3.20144   3.32016   3.41215   3.44302
 Alpha virt. eigenvalues --    3.49878   3.95535   4.07013   4.07981   4.08428
 Alpha virt. eigenvalues --    4.09531   4.10720   4.11026   4.11823   4.12563
 Alpha virt. eigenvalues --    4.13339   4.16878   4.20629   4.24004   4.31183
 Alpha virt. eigenvalues --    4.32358   4.35845   4.36124   4.42430   4.46387
 Alpha virt. eigenvalues --    4.46775   4.67589   4.70491   4.87007
          Condensed to atoms (all electrons):
               1          2          3          4          5          6
     1  C    4.853138   0.548311  -0.037390  -0.032815   0.000615   0.000004
     2  C    0.548311   4.863053   0.518537  -0.012251   0.006784  -0.000116
     3  C   -0.037390   0.518537   5.018858   0.522902  -0.047482   0.004530
     4  C   -0.032815  -0.012251   0.522902   4.763869   0.311857  -0.056008
     5  C    0.000615   0.006784  -0.047482   0.311857   5.129407   0.448362
     6  N    0.000004  -0.000116   0.004530  -0.056008   0.448362   6.973352
     7  C    0.000000   0.000002  -0.000125   0.005358  -0.054284   0.390588
     8  C    0.000000  -0.000003   0.000045   0.003432  -0.049583  -0.105208
     9  C   -0.000000   0.000000   0.000002  -0.000064   0.002700   0.009199
    10  C    0.000000  -0.000000  -0.000000   0.000001  -0.000202  -0.000368
    11  C    0.000000  -0.000000  -0.000000   0.000004   0.000199   0.005945
    12  C   -0.000000  -0.000000  -0.000000   0.000000   0.000008  -0.000096
    13  C    0.000000  -0.000000   0.000000  -0.000000  -0.000001   0.000014
    14  C   -0.000000   0.000000  -0.000000  -0.000000  -0.000000   0.000000
    15  C   -0.000000  -0.000000   0.000000   0.000000   0.000000  -0.000000
    16  C   -0.000000   0.000000  -0.000000   0.000000   0.000000  -0.000000
    17  C   -0.000000   0.000000  -0.000000   0.000000   0.000000  -0.000015
    18  C   -0.000000  -0.000000   0.000000  -0.000000  -0.000006   0.000562
    19  C   -0.000000  -0.000000   0.000000  -0.000030  -0.000448  -0.008470
    20  C    0.000000  -0.000000   0.000002  -0.000118   0.007812  -0.074603
    21  S   -0.000002   0.000154  -0.002602  -0.071339   0.270561  -0.093407
    22  C   -0.036006  -0.042527  -0.065384   0.524261  -0.054543  -0.008050
    23  C    0.540798  -0.024268  -0.046227  -0.016936   0.007491   0.000595
    24  H    0.360129  -0.042585   0.004952   0.000583   0.000006   0.000000
    25  H   -0.041668   0.358263  -0.038545   0.003177  -0.000177   0.000001
    26  H    0.004450  -0.040652   0.351519  -0.040647  -0.011084   0.000072
    27  H    0.000000   0.000000   0.000000   0.000000  -0.000015  -0.000122
    28  H   -0.000000   0.000000   0.000000  -0.000000  -0.000001   0.000003
    29  H    0.000000   0.000000  -0.000000   0.000000  -0.000000   0.000001
    30  H    0.000000  -0.000000  -0.000000   0.000000   0.000000   0.000000
    31  H   -0.000000   0.000000  -0.000000  -0.000000  -0.000000  -0.000000
    32  H    0.000000   0.000000   0.000000  -0.000000  -0.000000   0.000000
    33  H    0.000000  -0.000000   0.000000   0.000000  -0.000000  -0.000003
    34  H    0.000000  -0.000000   0.000000  -0.000048  -0.000204   0.014354
    35  H    0.004411   0.000221   0.006189  -0.035670  -0.015698   0.017557
    36  H   -0.042875   0.004546   0.000883   0.003321  -0.000223  -0.000004
               7          8          9         10         11         12
     1  C    0.000000   0.000000  -0.000000   0.000000   0.000000  -0.000000
     2  C    0.000002  -0.000003   0.000000  -0.000000  -0.000000  -0.000000
     3  C   -0.000125   0.000045   0.000002  -0.000000  -0.000000  -0.000000
     4  C    0.005358   0.003432  -0.000064   0.000001   0.000004   0.000000
     5  C   -0.054284  -0.049583   0.002700  -0.000202   0.000199   0.000008
     6  N    0.390588  -0.105208   0.009199  -0.000368   0.005945  -0.000096
     7  C    4.882824   0.401748   0.029489  -0.071152   0.013450   0.016045
     8  C    0.401748   5.331374   0.381222  -0.009812  -0.058497  -0.001044
     9  C    0.029489   0.381222   5.023413   0.505242   0.012964   0.008849
    10  C   -0.071152  -0.009812   0.505242   5.095337   0.413277  -0.085702
    11  C    0.013450  -0.058497   0.012964   0.413277   4.775197   0.407357
    12  C    0.016045  -0.001044   0.008849  -0.085702   0.407357   5.448945
    13  C    0.000128   0.000065  -0.000329   0.007258   0.005934   0.394289
    14  C   -0.000004   0.000000   0.000001  -0.000195   0.007593  -0.085290
    15  C    0.000000  -0.000000  -0.000000   0.000002  -0.000294   0.007906
    16  C    0.000002   0.000000  -0.000000   0.000000   0.000024  -0.000622
    17  C   -0.000288  -0.000001   0.000000  -0.000006   0.000021   0.015174
    18  C    0.006471  -0.000378   0.000075  -0.000448  -0.031355  -0.017913
    19  C   -0.089904   0.018240  -0.002449   0.017009  -0.061252  -0.114410
    20  C    0.329112  -0.032749  -0.046550  -0.023031   0.444200  -0.013698
    21  S   -0.077193   0.297858  -0.048570   0.003192   0.000547   0.000008
    22  C    0.000579   0.000061  -0.000001   0.000000  -0.000000  -0.000000
    23  C   -0.000005   0.000001  -0.000000   0.000000  -0.000000  -0.000000
    24  H   -0.000000  -0.000000  -0.000000   0.000000  -0.000000   0.000000
    25  H   -0.000000  -0.000000  -0.000000   0.000000  -0.000000   0.000000
    26  H   -0.000004   0.000052   0.000001  -0.000000   0.000000   0.000000
    27  H    0.002180  -0.039247   0.358311  -0.030736   0.001971  -0.000207
    28  H    0.000477   0.004577  -0.045320   0.357105  -0.038458  -0.008267
    29  H   -0.000178   0.000019   0.000183  -0.007695  -0.042720   0.347293
    30  H    0.000000  -0.000000   0.000000  -0.000004   0.000128  -0.008456
    31  H   -0.000000   0.000000   0.000000  -0.000000   0.000003  -0.000201
    32  H   -0.000000   0.000000   0.000000   0.000000  -0.000000   0.000010
    33  H    0.000000  -0.000000   0.000000  -0.000000   0.000011  -0.000174
    34  H   -0.010312   0.000550  -0.000025  -0.000144   0.003994   0.000354
    35  H    0.000309   0.000050  -0.000001   0.000000  -0.000001  -0.000000
    36  H   -0.000000  -0.000000   0.000000  -0.000000  -0.000000   0.000000
              13         14         15         16         17         18
     1  C    0.000000  -0.000000  -0.000000  -0.000000  -0.000000  -0.000000
     2  C   -0.000000   0.000000  -0.000000   0.000000   0.000000  -0.000000
     3  C    0.000000  -0.000000   0.000000  -0.000000  -0.000000   0.000000
     4  C   -0.000000  -0.000000   0.000000   0.000000   0.000000  -0.000000
     5  C   -0.000001  -0.000000   0.000000   0.000000   0.000000  -0.000006
     6  N    0.000014   0.000000  -0.000000  -0.000000  -0.000015   0.000562
     7  C    0.000128  -0.000004   0.000000   0.000002  -0.000288   0.006471
     8  C    0.000065   0.000000  -0.000000   0.000000  -0.000001  -0.000378
     9  C   -0.000329   0.000001  -0.000000  -0.000000   0.000000   0.000075
    10  C    0.007258  -0.000195   0.000002   0.000000  -0.000006  -0.000448
    11  C    0.005934   0.007593  -0.000294   0.000024   0.000021  -0.031355
    12  C    0.394289  -0.085290   0.007906  -0.000622   0.015174  -0.017913
    13  C    4.729546   0.441280  -0.005092  -0.036587  -0.032357   0.462169
    14  C    0.441280   5.078398   0.535035  -0.021686  -0.065388  -0.031975
    15  C   -0.005092   0.535035   4.905782   0.480097  -0.021722  -0.037228
    16  C   -0.036587  -0.021686   0.480097   4.907444   0.534300  -0.004833
    17  C   -0.032357  -0.065388  -0.021722   0.534300   5.074749   0.435131
    18  C    0.462169  -0.031975  -0.037228  -0.004833   0.435131   4.763624
    19  C   -0.018058   0.014721  -0.000499   0.007547  -0.080449   0.367688
    20  C   -0.035536  -0.000323   0.000034  -0.000298   0.007921   0.014376
    21  S    0.000000   0.000000   0.000000   0.000000  -0.000000   0.000012
    22  C    0.000000   0.000000  -0.000000   0.000000   0.000000   0.000000
    23  C    0.000000   0.000000  -0.000000  -0.000000  -0.000000   0.000000
    24  H   -0.000000  -0.000000   0.000000  -0.000000   0.000000   0.000000
    25  H    0.000000   0.000000  -0.000000  -0.000000  -0.000000   0.000000
    26  H   -0.000000  -0.000000   0.000000  -0.000000   0.000000  -0.000000
    27  H    0.000003  -0.000000  -0.000000   0.000000  -0.000000  -0.000001
    28  H    0.000165  -0.000004   0.000000  -0.000000   0.000000   0.000014
    29  H   -0.040511  -0.007996   0.000142   0.000017  -0.000186   0.004471
    30  H   -0.040996   0.353651  -0.045476   0.004522   0.000466   0.004661
    31  H    0.002729  -0.036322   0.357118  -0.041213   0.004117   0.000977
    32  H    0.000980   0.004176  -0.041462   0.356860  -0.036123   0.002820
    33  H    0.004461   0.000462   0.004528  -0.045649   0.355077  -0.041181
    34  H    0.004075  -0.000159   0.000014   0.000157  -0.007119  -0.043335
    35  H    0.000000  -0.000000  -0.000000  -0.000000  -0.000000   0.000001
    36  H   -0.000000  -0.000000   0.000000   0.000000   0.000000  -0.000000
              19         20         21         22         23         24
     1  C   -0.000000   0.000000  -0.000002  -0.036006   0.540798   0.360129
     2  C   -0.000000  -0.000000   0.000154  -0.042527  -0.024268  -0.042585
     3  C    0.000000   0.000002  -0.002602  -0.065384  -0.046227   0.004952
     4  C   -0.000030  -0.000118  -0.071339   0.524261  -0.016936   0.000583
     5  C   -0.000448   0.007812   0.270561  -0.054543   0.007491   0.000006
     6  N   -0.008470  -0.074603  -0.093407  -0.008050   0.000595   0.000000
     7  C   -0.089904   0.329112  -0.077193   0.000579  -0.000005  -0.000000
     8  C    0.018240  -0.032749   0.297858   0.000061   0.000001  -0.000000
     9  C   -0.002449  -0.046550  -0.048570  -0.000001  -0.000000  -0.000000
    10  C    0.017009  -0.023031   0.003192   0.000000   0.000000   0.000000
    11  C   -0.061252   0.444200   0.000547  -0.000000  -0.000000  -0.000000
    12  C   -0.114410  -0.013698   0.000008  -0.000000  -0.000000   0.000000
    13  C   -0.018058  -0.035536   0.000000   0.000000   0.000000  -0.000000
    14  C    0.014721  -0.000323   0.000000   0.000000   0.000000  -0.000000
    15  C   -0.000499   0.000034   0.000000  -0.000000  -0.000000   0.000000
    16  C    0.007547  -0.000298   0.000000   0.000000  -0.000000  -0.000000
    17  C   -0.080449   0.007921  -0.000000   0.000000  -0.000000   0.000000
    18  C    0.367688   0.014376   0.000012   0.000000   0.000000   0.000000
    19  C    5.517520   0.371045   0.000185  -0.000008   0.000000   0.000000
    20  C    0.371045   4.951254   0.005472  -0.000017  -0.000000  -0.000000
    21  S    0.000185   0.005472  15.477662   0.007349  -0.000075  -0.000001
    22  C   -0.000008  -0.000017   0.007349   4.989972   0.508713   0.004546
    23  C    0.000000  -0.000000  -0.000075   0.508713   4.887829  -0.042926
    24  H    0.000000  -0.000000  -0.000001   0.004546  -0.042926   0.591304
    25  H    0.000000   0.000000   0.000002   0.000892   0.004446  -0.005392
    26  H    0.000000  -0.000000   0.009998   0.005322   0.000378  -0.000172
    27  H    0.000021   0.001184  -0.002049   0.000000   0.000000   0.000000
    28  H   -0.000154   0.004523  -0.000161   0.000000  -0.000000   0.000000
    29  H    0.000498   0.004154  -0.000000  -0.000000  -0.000000   0.000000
    30  H   -0.000183   0.000018  -0.000000  -0.000000  -0.000000   0.000000
    31  H    0.000012  -0.000001   0.000000   0.000000  -0.000000   0.000000
    32  H   -0.000210   0.000003  -0.000000  -0.000000   0.000000   0.000000
    33  H   -0.007435   0.000278  -0.000000  -0.000000  -0.000000   0.000000
    34  H    0.352130  -0.037936   0.000101  -0.000025   0.000001  -0.000000
    35  H   -0.000002  -0.000085   0.000526   0.354412  -0.045654  -0.000151
    36  H    0.000000  -0.000000   0.000004  -0.038701   0.358721  -0.005413
              25         26         27         28         29         30
     1  C   -0.041668   0.004450   0.000000  -0.000000   0.000000   0.000000
     2  C    0.358263  -0.040652   0.000000   0.000000   0.000000  -0.000000
     3  C   -0.038545   0.351519   0.000000   0.000000  -0.000000  -0.000000
     4  C    0.003177  -0.040647   0.000000  -0.000000   0.000000   0.000000
     5  C   -0.000177  -0.011084  -0.000015  -0.000001  -0.000000   0.000000
     6  N    0.000001   0.000072  -0.000122   0.000003   0.000001   0.000000
     7  C   -0.000000  -0.000004   0.002180   0.000477  -0.000178   0.000000
     8  C   -0.000000   0.000052  -0.039247   0.004577   0.000019  -0.000000
     9  C   -0.000000   0.000001   0.358311  -0.045320   0.000183   0.000000
    10  C    0.000000  -0.000000  -0.030736   0.357105  -0.007695  -0.000004
    11  C   -0.000000   0.000000   0.001971  -0.038458  -0.042720   0.000128
    12  C    0.000000   0.000000  -0.000207  -0.008267   0.347293  -0.008456
    13  C    0.000000  -0.000000   0.000003   0.000165  -0.040511  -0.040996
    14  C    0.000000  -0.000000  -0.000000  -0.000004  -0.007996   0.353651
    15  C   -0.000000   0.000000  -0.000000   0.000000   0.000142  -0.045476
    16  C   -0.000000  -0.000000   0.000000  -0.000000   0.000017   0.004522
    17  C   -0.000000   0.000000  -0.000000   0.000000  -0.000186   0.000466
    18  C    0.000000  -0.000000  -0.000001   0.000014   0.004471   0.004661
    19  C    0.000000   0.000000   0.000021  -0.000154   0.000498  -0.000183
    20  C    0.000000  -0.000000   0.001184   0.004523   0.004154   0.000018
    21  S    0.000002   0.009998  -0.002049  -0.000161  -0.000000  -0.000000
    22  C    0.000892   0.005322   0.000000   0.000000  -0.000000  -0.000000
    23  C    0.004446   0.000378   0.000000  -0.000000  -0.000000  -0.000000
    24  H   -0.005392  -0.000172   0.000000   0.000000   0.000000   0.000000
    25  H    0.588082  -0.005253   0.000000   0.000000  -0.000000  -0.000000
    26  H   -0.005253   0.577304   0.000000  -0.000000   0.000000   0.000000
    27  H    0.000000   0.000000   0.568111  -0.004936  -0.000012  -0.000000
    28  H    0.000000  -0.000000  -0.004936   0.589303   0.006590   0.000002
    29  H   -0.000000   0.000000  -0.000012   0.006590   0.598950   0.006677
    30  H   -0.000000   0.000000  -0.000000   0.000002   0.006677   0.600975
    31  H    0.000000  -0.000000  -0.000000   0.000000  -0.000012  -0.005561
    32  H    0.000000   0.000000   0.000000  -0.000000  -0.000000  -0.000185
    33  H   -0.000000   0.000000  -0.000000   0.000000   0.000003   0.000019
    34  H    0.000000  -0.000000   0.000000   0.000002   0.000022   0.000002
    35  H    0.000016  -0.000157   0.000000   0.000000   0.000000   0.000000
    36  H   -0.000181   0.000016  -0.000000   0.000000  -0.000000  -0.000000
              31         32         33         34         35         36
     1  C   -0.000000   0.000000   0.000000   0.000000   0.004411  -0.042875
     2  C    0.000000   0.000000  -0.000000  -0.000000   0.000221   0.004546
     3  C   -0.000000   0.000000   0.000000   0.000000   0.006189   0.000883
     4  C   -0.000000  -0.000000   0.000000  -0.000048  -0.035670   0.003321
     5  C   -0.000000  -0.000000  -0.000000  -0.000204  -0.015698  -0.000223
     6  N   -0.000000   0.000000  -0.000003   0.014354   0.017557  -0.000004
     7  C   -0.000000  -0.000000   0.000000  -0.010312   0.000309  -0.000000
     8  C    0.000000   0.000000  -0.000000   0.000550   0.000050  -0.000000
     9  C    0.000000   0.000000   0.000000  -0.000025  -0.000001   0.000000
    10  C   -0.000000   0.000000  -0.000000  -0.000144   0.000000  -0.000000
    11  C    0.000003  -0.000000   0.000011   0.003994  -0.000001  -0.000000
    12  C   -0.000201   0.000010  -0.000174   0.000354  -0.000000   0.000000
    13  C    0.002729   0.000980   0.004461   0.004075   0.000000  -0.000000
    14  C   -0.036322   0.004176   0.000462  -0.000159  -0.000000  -0.000000
    15  C    0.357118  -0.041462   0.004528   0.000014  -0.000000   0.000000
    16  C   -0.041213   0.356860  -0.045649   0.000157  -0.000000   0.000000
    17  C    0.004117  -0.036123   0.355077  -0.007119  -0.000000   0.000000
    18  C    0.000977   0.002820  -0.041181  -0.043335   0.000001  -0.000000
    19  C    0.000012  -0.000210  -0.007435   0.352130  -0.000002   0.000000
    20  C   -0.000001   0.000003   0.000278  -0.037936  -0.000085  -0.000000
    21  S    0.000000  -0.000000  -0.000000   0.000101   0.000526   0.000004
    22  C    0.000000  -0.000000  -0.000000  -0.000025   0.354412  -0.038701
    23  C   -0.000000   0.000000  -0.000000   0.000001  -0.045654   0.358721
    24  H    0.000000   0.000000   0.000000  -0.000000  -0.000151  -0.005413
    25  H    0.000000   0.000000  -0.000000   0.000000   0.000016  -0.000181
    26  H   -0.000000   0.000000   0.000000  -0.000000  -0.000157   0.000016
    27  H   -0.000000   0.000000  -0.000000   0.000000   0.000000  -0.000000
    28  H    0.000000  -0.000000   0.000000   0.000002   0.000000   0.000000
    29  H   -0.000012  -0.000000   0.000003   0.000022   0.000000  -0.000000
    30  H   -0.005561  -0.000185   0.000019   0.000002   0.000000  -0.000000
    31  H    0.592582  -0.004721  -0.000183  -0.000000  -0.000000   0.000000
    32  H   -0.004721   0.592359  -0.005543  -0.000011   0.000000  -0.000000
    33  H   -0.000183  -0.005543   0.596610   0.005854   0.000000  -0.000000
    34  H   -0.000000  -0.000011   0.005854   0.564643   0.000435  -0.000000
    35  H   -0.000000   0.000000   0.000000   0.000435   0.556583  -0.004960
    36  H    0.000000  -0.000000  -0.000000  -0.000000  -0.004960   0.588495
 Mulliken charges:
               1
     1  C   -0.121101
     2  C   -0.137469
     3  C   -0.190666
     4  C    0.127163
     5  C    0.048147
     6  N   -0.518670
     7  C    0.224685
     8  C   -0.142773
     9  C   -0.188344
    10  C   -0.168929
    11  C    0.139760
    12  C   -0.310156
    13  C    0.156372
    14  C   -0.185976
    15  C   -0.138885
    16  C   -0.140081
    17  C   -0.183304
    18  C    0.145601
    19  C   -0.282654
    20  C    0.123555
    21  S    0.221770
    22  C   -0.150845
    23  C   -0.132882
    24  H    0.135120
    25  H    0.136337
    26  H    0.148857
    27  H    0.145543
    28  H    0.134539
    29  H    0.130291
    30  H    0.129739
    31  H    0.130675
    32  H    0.131048
    33  H    0.132863
    34  H    0.152629
    35  H    0.161669
    36  H    0.136370
 Sum of Mulliken charges =  -0.00000
 Mulliken charges with hydrogens summed into heavy atoms:
               1
     1  C    0.014019
     2  C   -0.001132
     3  C   -0.041808
     4  C    0.127163
     5  C    0.048147
     6  N   -0.518670
     7  C    0.224685
     8  C   -0.142773
     9  C   -0.042801
    10  C   -0.034390
    11  C    0.139760
    12  C   -0.179865
    13  C    0.156372
    14  C   -0.056237
    15  C   -0.008209
    16  C   -0.009033
    17  C   -0.050441
    18  C    0.145601
    19  C   -0.130025
    20  C    0.123555
    21  S    0.221770
    22  C    0.010824
    23  C    0.003488
 Electronic spatial extent (au):  <R**2>=          10027.5001
 Charge=             -0.0000 electrons
 Dipole moment (field-independent basis, Debye):
    X=              0.3729    Y=              0.2625    Z=              0.0000  Tot=              0.4560
 Quadrupole moment (field-independent basis, Debye-Ang):
   XX=           -113.2553   YY=           -120.6952   ZZ=           -144.8376
   XY=             -3.0383   XZ=             -0.0000   YZ=              0.0000
 Traceless Quadrupole moment (field-independent basis, Debye-Ang):
   XX=             13.0074   YY=              5.5675   ZZ=            -18.5750
   XY=             -3.0383   XZ=             -0.0000   YZ=              0.0000
 Octapole moment (field-independent basis, Debye-Ang**2):
  XXX=             33.7969  YYY=             -4.3729  ZZZ=             -0.0000  XYY=             -4.9128
  XXY=            -21.3104  XXZ=              0.0002  XZZ=              4.5588  YZZ=              2.4974
  YYZ=              0.0000  XYZ=             -0.0002
 Hexadecapole moment (field-independent basis, Debye-Ang**3):
 XXXX=          -9728.3732 YYYY=          -2457.4013 ZZZZ=           -152.6335 XXXY=            -58.6226
 XXXZ=             -0.0004 YYYX=            -39.1774 YYYZ=              0.0002 ZZZX=             -0.0001
 ZZZY=             -0.0001 XXYY=          -2061.0549 XXZZ=          -2046.5053 YYZZ=           -520.9475
 XXYZ=             -0.0000 YYXZ=              0.0001 ZZXY=              4.1482
 N-N= 1.766546039478D+03 E-N=-6.477839924015D+03  KE= 1.251408514230D+03
 1\1\GINC-CNODE9\SP\RB3LYP TD-FC\6-31G(d)\C21H13N1S1\JUNHKIM\19-Jan-202
 6\0\\# b3lyp/6-31g* TD=(Nstates=1,50-50) Geom=Check Guess=Read SCF=XQC
 \\TD-DFT calculation\\0,1\C,0,6.1402208607,1.2230120162,-1.0003030725\
 C,0,6.1710734905,-0.0327924532,-0.3909125684\C,0,4.9851650508,-0.65699
 45375,-0.0110799644\C,0,3.7468277042,-0.0334690699,-0.2353242108\C,0,2
 .4765408154,-0.6586876964,0.1504074359\N,0,1.306529491,-0.1152538794,-
 0.0392188755\C,0,0.286056583,-0.9144916268,0.4152280597\C,0,0.67627044
 16,-2.1299341719,0.9819497134\C,0,-0.2639744282,-3.0626592911,1.496240
 9246\C,0,-1.5957166864,-2.7516710562,1.4301294123\C,0,-2.0621153884,-1
 .5187913054,0.8597978422\C,0,-3.4240668206,-1.2087093813,0.7960622158\
 C,0,-3.8849143576,-0.0060191601,0.2400717107\C,0,-5.274190227,0.319465
 5354,0.1705872961\C,0,-5.6934591202,1.5034061092,-0.3789381653\C,0,-4.
 746295539,2.4351131896,-0.8931770954\C,0,-3.4039993613,2.159290174,-0.
 8448608089\C,0,-2.9253687111,0.937679762,-0.2807981922\C,0,-1.55721298
 16,0.6292517218,-0.2182648206\C,0,-1.1088191069,-0.5683870922,0.336064
 2912\S,0,2.4147827988,-2.259957165,0.9339177952\C,0,3.7252860365,1.231
 8637113,-0.8499495425\C,0,4.9125023662,1.8511484101,-1.2274718619\H,0,
 7.0660266393,1.7087433122,-1.2960653336\H,0,7.120579024,-0.5289449505,
 -0.210179699\H,0,5.0270640383,-1.6346059232,0.462169963\H,0,0.06843418
 08,-3.9999850935,1.9312710345\H,0,-2.3338215431,-3.4494453237,1.817095
 4127\H,0,-4.1477847075,-1.9202012095,1.1887841998\H,0,-5.9950094595,-0
 .3936232042,0.5639012277\H,0,-6.7533748589,1.7383488752,-0.4254367685\
 H,0,-5.0962095182,3.3687274557,-1.3252781728\H,0,-2.6787648332,2.86846
 33319,-1.2365513014\H,0,-0.8260137802,1.3316885904,-0.6070578216\H,0,2
 .7671282258,1.7098592189,-1.0212887095\H,0,4.8806256823,2.828563177,-1
 .7012675501\\Version=ES64L-G16RevB.01\State=1-A\HF=-1261.0488141\RMSD=
 4.522e-09\PG=C01 [X(C21H13N1S1)]\\@


            THE IRISH PIG
 'TWAS AN EVENING IN NOVEMBER,
 AS I VERY WELL REMEMBER
 I WAS STROLLING DOWN THE STREET IN DRUNKEN PRIDE,
 BUT MY KNEES WERE ALL A'FLUTTER
 SO I LANDED IN THE GUTTER,
 AND A PIG CAME UP AND LAY DOWN BY MY SIDE.

 YES, I LAY THERE IN THE GUTTER
 THINKING THOUGHTS I COULD NOT UTTER
 WHEN A COLLEEN PASSING BY DID SOFTLY SAY,
 'YE CAN TELL A MAN THAT BOOZES
 BY THE COMPANY THAT HE CHOOSES.' -
 AT THAT, THE PIG GOT UP AND WALKED AWAY!
     -- THE ECONOMIST, AUGUST 23, 1986
 Job cpu time:       0 days  0 hours 27 minutes 50.0 seconds.
 Elapsed time:       0 days  0 hours  1 minutes 44.5 seconds.
 File lengths (MBytes):  RWF=    735 Int=      0 D2E=      0 Chk=     67 Scr=      2
 Normal termination of Gaussian 16 at Mon Jan 19 14:12:54 2026.
