 Entering Gaussian System, Link 0=g16
 Initial command:
 /appl/Gaussian16/AVX_revB01/g16/l1.exe "/home/junhkim/WORK/Review_DD/TADF-Design/data/td_dft/results/mol_661/Gau-2702028.inp" -scrdir="/home/junhkim/WORK/Review_DD/TADF-Design/data/td_dft/results/mol_661/"
 Entering Link 1 = /appl/Gaussian16/AVX_revB01/g16/l1.exe PID=   2702030.
  
 Copyright (c) 1988-2017, Gaussian, Inc.  All Rights Reserved.
  
 This is part of the Gaussian(R) 16 program.  It is based on
 the Gaussian(R) 09 system (copyright 2009, Gaussian, Inc.),
 the Gaussian(R) 03 system (copyright 2003, Gaussian, Inc.),
 the Gaussian(R) 98 system (copyright 1998, Gaussian, Inc.),
 the Gaussian(R) 94 system (copyright 1995, Gaussian, Inc.),
 the Gaussian 92(TM) system (copyright 1992, Gaussian, Inc.),
 the Gaussian 90(TM) system (copyright 1990, Gaussian, Inc.),
 the Gaussian 88(TM) system (copyright 1988, Gaussian, Inc.),
 the Gaussian 86(TM) system (copyright 1986, Carnegie Mellon
 University), and the Gaussian 82(TM) system (copyright 1983,
 Carnegie Mellon University). Gaussian is a federally registered
 trademark of Gaussian, Inc.
  
 This software contains proprietary and confidential information,
 including trade secrets, belonging to Gaussian, Inc.
  
 This software is provided under written license and may be
 used, copied, transmitted, or stored only in accord with that
 written license.
  
 The following legend is applicable only to US Government
 contracts under FAR:
  
                    RESTRICTED RIGHTS LEGEND
  
 Use, reproduction and disclosure by the US Government is
 subject to restrictions as set forth in subparagraphs (a)
 and (c) of the Commercial Computer Software - Restricted
 Rights clause in FAR 52.227-19.
  
 Gaussian, Inc.
 340 Quinnipiac St., Bldg. 40, Wallingford CT 06492
  
  
 ---------------------------------------------------------------
 Warning -- This program may not be used in any manner that
 competes with the business of Gaussian, Inc. or will provide
 assistance to any competitor of Gaussian, Inc.  The licensee
 of this program is prohibited from giving any competitor of
 Gaussian, Inc. access to this program.  By using this program,
 the user acknowledges that Gaussian, Inc. is engaged in the
 business of creating and licensing software in the field of
 computational chemistry and represents and warrants to the
 licensee that it is not a competitor of Gaussian, Inc. and that
 it will not use this program in any manner prohibited above.
 ---------------------------------------------------------------
  

 Cite this work as:
 Gaussian 16, Revision B.01,
 M. J. Frisch, G. W. Trucks, H. B. Schlegel, G. E. Scuseria, 
 M. A. Robb, J. R. Cheeseman, G. Scalmani, V. Barone, 
 G. A. Petersson, H. Nakatsuji, X. Li, M. Caricato, A. V. Marenich, 
 J. Bloino, B. G. Janesko, R. Gomperts, B. Mennucci, H. P. Hratchian, 
 J. V. Ortiz, A. F. Izmaylov, J. L. Sonnenberg, D. Williams-Young, 
 F. Ding, F. Lipparini, F. Egidi, J. Goings, B. Peng, A. Petrone, 
 T. Henderson, D. Ranasinghe, V. G. Zakrzewski, J. Gao, N. Rega, 
 G. Zheng, W. Liang, M. Hada, M. Ehara, K. Toyota, R. Fukuda, 
 J. Hasegawa, M. Ishida, T. Nakajima, Y. Honda, O. Kitao, H. Nakai, 
 T. Vreven, K. Throssell, J. A. Montgomery, Jr., J. E. Peralta, 
 F. Ogliaro, M. J. Bearpark, J. J. Heyd, E. N. Brothers, K. N. Kudin, 
 V. N. Staroverov, T. A. Keith, R. Kobayashi, J. Normand, 
 K. Raghavachari, A. P. Rendell, J. C. Burant, S. S. Iyengar, 
 J. Tomasi, M. Cossi, J. M. Millam, M. Klene, C. Adamo, R. Cammi, 
 J. W. Ochterski, R. L. Martin, K. Morokuma, O. Farkas, 
 J. B. Foresman, and D. J. Fox, Gaussian, Inc., Wallingford CT, 2016.
 
 ******************************************
 Gaussian 16:  ES64L-G16RevB.01 20-Dec-2017
                18-Jan-2026 
 ******************************************
 %mem=60GB
 %chk=opt.chk
 %nprocshared=16
 Will use up to   16 processors via shared memory.
 ---------------------------
 #P b3lyp/6-31g* opt SCF=XQC
 ---------------------------
 1/18=20,19=15,26=3,38=1/1,3;
 2/9=110,12=2,17=6,18=5,40=1/2;
 3/5=1,6=6,7=1,11=2,25=1,30=1,71=1,74=-5/1,2,3;
 4//1;
 5/5=2,8=3,13=1,38=5/2,8;
 6/7=2,8=2,9=2,10=2,28=1/1;
 7//1,2,3,16;
 1/18=20,19=15,26=3/3(2);
 2/9=110/2;
 99//99;
 2/9=110/2;
 3/5=1,6=6,7=1,11=2,25=1,30=1,71=1,74=-5/1,2,3;
 4/5=5,16=3,69=1/1;
 5/5=2,8=3,13=1,38=5/2,8;
 7//1,2,3,16;
 1/18=20,19=15,26=3/3(-5);
 2/9=110/2;
 6/7=2,8=2,9=2,10=2,19=2,28=1/1;
 99/9=1/99;
 Leave Link    1 at Sun Jan 18 23:58:55 2026, MaxMem=  8053063680 cpu:               1.1 elap:               0.1
 (Enter /appl/Gaussian16/AVX_revB01/g16/l101.exe)
 ------------------------------
 Gaussian input prepared by ASE
 ------------------------------
 Symbolic Z-matrix:
 Charge =  0 Multiplicity = 1
 C                     4.99505   0.44577  -0.36677 
 C                     5.13986  -0.11429   0.86472 
 S                     3.63413  -0.52495   1.57646 
 C                     2.7776    0.06978   0.18517 
 C                     1.34168   0.03066   0.09947 
 C                     0.52884  -0.4846    1.12018 
 N                    -0.78076  -0.51536   1.03135 
 C                    -1.34168  -0.03065  -0.08622 
 C                    -2.7776   -0.06977  -0.17192 
 C                    -3.64913  -0.55214   0.7705 
 C                    -4.99505  -0.44577   0.38002 
 C                    -5.13986   0.11426  -0.85149 
 S                    -3.63413   0.52497  -1.5632 
 C                    -0.52884   0.48461  -1.10693 
 N                     0.78076   0.51536  -1.0181 
 C                     3.64913   0.55215  -0.75724 
 H                     5.82246   0.7702   -0.972 
 H                     6.04504  -0.31324   1.40354 
 H                     0.9579   -0.88139   2.03148 
 H                    -3.30947  -0.96352   1.70282 
 H                    -5.82245  -0.77021   0.98524 
 H                    -6.04504   0.31318  -1.39032 
 H                    -0.95791   0.8814   -2.01823 
 H                     3.30947   0.96354  -1.68956 
 
 ITRead=  0  0  0  0  0  0  0  0  0  0  0  0  0  0  0  0  0  0  0  0
 ITRead=  0  0  0  0
 MicOpt= -1 -1 -1 -1 -1 -1 -1 -1 -1 -1 -1 -1 -1 -1 -1 -1 -1 -1 -1 -1
 MicOpt= -1 -1 -1 -1
 NAtoms=     24 NQM=       24 NQMF=       0 NMMI=      0 NMMIF=      0
                NMic=       0 NMicF=      0.
                    Isotopes and Nuclear Properties:
 (Nuclear quadrupole moments (NQMom) in fm**2, nuclear magnetic moments (NMagM)
  in nuclear magnetons)

  Atom         1           2           3           4           5           6           7           8           9          10
 IAtWgt=          12          12          32          12          12          12          14          12          12          12
 AtmWgt=  12.0000000  12.0000000  31.9720718  12.0000000  12.0000000  12.0000000  14.0030740  12.0000000  12.0000000  12.0000000
 NucSpn=           0           0           0           0           0           0           2           0           0           0
 AtZEff=  -0.0000000  -0.0000000  -0.0000000  -0.0000000  -0.0000000  -0.0000000  -0.0000000  -0.0000000  -0.0000000  -0.0000000
 NQMom=    0.0000000   0.0000000   0.0000000   0.0000000   0.0000000   0.0000000   2.0440000   0.0000000   0.0000000   0.0000000
 NMagM=    0.0000000   0.0000000   0.0000000   0.0000000   0.0000000   0.0000000   0.4037610   0.0000000   0.0000000   0.0000000
 AtZNuc=   6.0000000   6.0000000  16.0000000   6.0000000   6.0000000   6.0000000   7.0000000   6.0000000   6.0000000   6.0000000

  Atom        11          12          13          14          15          16          17          18          19          20
 IAtWgt=          12          12          32          12          14          12           1           1           1           1
 AtmWgt=  12.0000000  12.0000000  31.9720718  12.0000000  14.0030740  12.0000000   1.0078250   1.0078250   1.0078250   1.0078250
 NucSpn=           0           0           0           0           2           0           1           1           1           1
 AtZEff=  -0.0000000  -0.0000000  -0.0000000  -0.0000000  -0.0000000  -0.0000000  -0.0000000  -0.0000000  -0.0000000  -0.0000000
 NQMom=    0.0000000   0.0000000   0.0000000   0.0000000   2.0440000   0.0000000   0.0000000   0.0000000   0.0000000   0.0000000
 NMagM=    0.0000000   0.0000000   0.0000000   0.0000000   0.4037610   0.0000000   2.7928460   2.7928460   2.7928460   2.7928460
 AtZNuc=   6.0000000   6.0000000  16.0000000   6.0000000   7.0000000   6.0000000   1.0000000   1.0000000   1.0000000   1.0000000

  Atom        21          22          23          24
 IAtWgt=           1           1           1           1
 AtmWgt=   1.0078250   1.0078250   1.0078250   1.0078250
 NucSpn=           1           1           1           1
 AtZEff=  -0.0000000  -0.0000000  -0.0000000  -0.0000000
 NQMom=    0.0000000   0.0000000   0.0000000   0.0000000
 NMagM=    2.7928460   2.7928460   2.7928460   2.7928460
 AtZNuc=   1.0000000   1.0000000   1.0000000   1.0000000
 Leave Link  101 at Sun Jan 18 23:58:56 2026, MaxMem=  8053063680 cpu:              11.0 elap:               0.8
 (Enter /appl/Gaussian16/AVX_revB01/g16/l103.exe)

 GradGradGradGradGradGradGradGradGradGradGradGradGradGradGradGradGradGrad
 Berny optimization.
 Initialization pass.
                           ----------------------------
                           !    Initial Parameters    !
                           ! (Angstroms and Degrees)  !
 --------------------------                            --------------------------
 ! Name  Definition              Value          Derivative Info.                !
 --------------------------------------------------------------------------------
 ! R1    R(1,2)                  1.3606         estimate D2E/DX2                !
 ! R2    R(1,16)                 1.4054         estimate D2E/DX2                !
 ! R3    R(1,17)                 1.0752         estimate D2E/DX2                !
 ! R4    R(2,3)                  1.7154         estimate D2E/DX2                !
 ! R5    R(2,18)                 1.072          estimate D2E/DX2                !
 ! R6    R(3,4)                  1.7387         estimate D2E/DX2                !
 ! R7    R(4,5)                  1.439          estimate D2E/DX2                !
 ! R8    R(4,16)                 1.3713         estimate D2E/DX2                !
 ! R9    R(5,6)                  1.4029         estimate D2E/DX2                !
 ! R10   R(5,15)                 1.3411         estimate D2E/DX2                !
 ! R11   R(6,7)                  1.313          estimate D2E/DX2                !
 ! R12   R(6,19)                 1.0826         estimate D2E/DX2                !
 ! R13   R(7,8)                  1.3411         estimate D2E/DX2                !
 ! R14   R(8,9)                  1.439          estimate D2E/DX2                !
 ! R15   R(8,14)                 1.4029         estimate D2E/DX2                !
 ! R16   R(9,10)                 1.3713         estimate D2E/DX2                !
 ! R17   R(9,13)                 1.7387         estimate D2E/DX2                !
 ! R18   R(10,11)                1.4054         estimate D2E/DX2                !
 ! R19   R(10,20)                1.0742         estimate D2E/DX2                !
 ! R20   R(11,12)                1.3606         estimate D2E/DX2                !
 ! R21   R(11,21)                1.0752         estimate D2E/DX2                !
 ! R22   R(12,13)                1.7154         estimate D2E/DX2                !
 ! R23   R(12,22)                1.072          estimate D2E/DX2                !
 ! R24   R(14,15)                1.313          estimate D2E/DX2                !
 ! R25   R(14,23)                1.0826         estimate D2E/DX2                !
 ! R26   R(16,24)                1.0742         estimate D2E/DX2                !
 ! A1    A(2,1,16)             112.6156         estimate D2E/DX2                !
 ! A2    A(2,1,17)             123.4882         estimate D2E/DX2                !
 ! A3    A(16,1,17)            123.8962         estimate D2E/DX2                !
 ! A4    A(1,2,3)              112.3754         estimate D2E/DX2                !
 ! A5    A(1,2,18)             128.4023         estimate D2E/DX2                !
 ! A6    A(3,2,18)             119.2224         estimate D2E/DX2                !
 ! A7    A(2,3,4)               91.0614         estimate D2E/DX2                !
 ! A8    A(3,4,5)              122.0008         estimate D2E/DX2                !
 ! A9    A(3,4,16)             110.9259         estimate D2E/DX2                !
 ! A10   A(5,4,16)             127.0733         estimate D2E/DX2                !
 ! A11   A(4,5,6)              123.0125         estimate D2E/DX2                !
 ! A12   A(4,5,15)             117.2037         estimate D2E/DX2                !
 ! A13   A(6,5,15)             119.7838         estimate D2E/DX2                !
 ! A14   A(5,6,7)              122.5001         estimate D2E/DX2                !
 ! A15   A(5,6,19)             121.161          estimate D2E/DX2                !
 ! A16   A(7,6,19)             116.3389         estimate D2E/DX2                !
 ! A17   A(6,7,8)              117.7161         estimate D2E/DX2                !
 ! A18   A(7,8,9)              117.2037         estimate D2E/DX2                !
 ! A19   A(7,8,14)             119.7838         estimate D2E/DX2                !
 ! A20   A(9,8,14)             123.0125         estimate D2E/DX2                !
 ! A21   A(8,9,10)             127.0733         estimate D2E/DX2                !
 ! A22   A(8,9,13)             122.0008         estimate D2E/DX2                !
 ! A23   A(10,9,13)            110.9259         estimate D2E/DX2                !
 ! A24   A(9,10,11)            113.0218         estimate D2E/DX2                !
 ! A25   A(9,10,20)            122.0223         estimate D2E/DX2                !
 ! A26   A(11,10,20)           124.9559         estimate D2E/DX2                !
 ! A27   A(10,11,12)           112.6156         estimate D2E/DX2                !
 ! A28   A(10,11,21)           123.8962         estimate D2E/DX2                !
 ! A29   A(12,11,21)           123.4882         estimate D2E/DX2                !
 ! A30   A(11,12,13)           112.3754         estimate D2E/DX2                !
 ! A31   A(11,12,22)           128.4023         estimate D2E/DX2                !
 ! A32   A(13,12,22)           119.2224         estimate D2E/DX2                !
 ! A33   A(9,13,12)             91.0614         estimate D2E/DX2                !
 ! A34   A(8,14,15)            122.5001         estimate D2E/DX2                !
 ! A35   A(8,14,23)            121.161          estimate D2E/DX2                !
 ! A36   A(15,14,23)           116.3389         estimate D2E/DX2                !
 ! A37   A(5,15,14)            117.7161         estimate D2E/DX2                !
 ! A38   A(1,16,4)             113.0218         estimate D2E/DX2                !
 ! A39   A(1,16,24)            124.9559         estimate D2E/DX2                !
 ! A40   A(4,16,24)            122.0223         estimate D2E/DX2                !
 ! D1    D(16,1,2,3)            -0.0018         estimate D2E/DX2                !
 ! D2    D(16,1,2,18)          179.9994         estimate D2E/DX2                !
 ! D3    D(17,1,2,3)           179.999          estimate D2E/DX2                !
 ! D4    D(17,1,2,18)            0.0002         estimate D2E/DX2                !
 ! D5    D(2,1,16,4)             0.0001         estimate D2E/DX2                !
 ! D6    D(2,1,16,24)         -179.9992         estimate D2E/DX2                !
 ! D7    D(17,1,16,4)          179.9994         estimate D2E/DX2                !
 ! D8    D(17,1,16,24)           0.0            estimate D2E/DX2                !
 ! D9    D(1,2,3,4)              0.0022         estimate D2E/DX2                !
 ! D10   D(18,2,3,4)          -179.9988         estimate D2E/DX2                !
 ! D11   D(2,3,4,5)            179.9986         estimate D2E/DX2                !
 ! D12   D(2,3,4,16)            -0.0021         estimate D2E/DX2                !
 ! D13   D(3,4,5,6)             -0.0004         estimate D2E/DX2                !
 ! D14   D(3,4,5,15)           179.9994         estimate D2E/DX2                !
 ! D15   D(16,4,5,6)          -179.9995         estimate D2E/DX2                !
 ! D16   D(16,4,5,15)            0.0003         estimate D2E/DX2                !
 ! D17   D(3,4,16,1)             0.0015         estimate D2E/DX2                !
 ! D18   D(3,4,16,24)         -179.9991         estimate D2E/DX2                !
 ! D19   D(5,4,16,1)          -179.9993         estimate D2E/DX2                !
 ! D20   D(5,4,16,24)            0.0001         estimate D2E/DX2                !
 ! D21   D(4,5,6,7)            179.9999         estimate D2E/DX2                !
 ! D22   D(4,5,6,19)            -0.0001         estimate D2E/DX2                !
 ! D23   D(15,5,6,7)             0.0001         estimate D2E/DX2                !
 ! D24   D(15,5,6,19)         -179.9999         estimate D2E/DX2                !
 ! D25   D(4,5,15,14)         -179.9999         estimate D2E/DX2                !
 ! D26   D(6,5,15,14)            0.0            estimate D2E/DX2                !
 ! D27   D(5,6,7,8)              0.0            estimate D2E/DX2                !
 ! D28   D(19,6,7,8)           179.9999         estimate D2E/DX2                !
 ! D29   D(6,7,8,9)           -180.0            estimate D2E/DX2                !
 ! D30   D(6,7,8,14)             0.0            estimate D2E/DX2                !
 ! D31   D(7,8,9,10)             0.0001         estimate D2E/DX2                !
 ! D32   D(7,8,9,13)           179.9999         estimate D2E/DX2                !
 ! D33   D(14,8,9,10)         -179.9998         estimate D2E/DX2                !
 ! D34   D(14,8,9,13)           -0.0001         estimate D2E/DX2                !
 ! D35   D(7,8,14,15)            0.0001         estimate D2E/DX2                !
 ! D36   D(7,8,14,23)         -180.0            estimate D2E/DX2                !
 ! D37   D(9,8,14,15)         -180.0            estimate D2E/DX2                !
 ! D38   D(9,8,14,23)            0.0            estimate D2E/DX2                !
 ! D39   D(8,9,10,11)         -179.9998         estimate D2E/DX2                !
 ! D40   D(8,9,10,20)            0.0            estimate D2E/DX2                !
 ! D41   D(13,9,10,11)           0.0004         estimate D2E/DX2                !
 ! D42   D(13,9,10,20)        -179.9998         estimate D2E/DX2                !
 ! D43   D(8,9,13,12)          179.9996         estimate D2E/DX2                !
 ! D44   D(10,9,13,12)          -0.0006         estimate D2E/DX2                !
 ! D45   D(9,10,11,12)           0.0            estimate D2E/DX2                !
 ! D46   D(9,10,11,21)         179.9998         estimate D2E/DX2                !
 ! D47   D(20,10,11,12)       -179.9998         estimate D2E/DX2                !
 ! D48   D(20,10,11,21)          0.0            estimate D2E/DX2                !
 ! D49   D(10,11,12,13)         -0.0005         estimate D2E/DX2                !
 ! D50   D(10,11,12,22)        179.9999         estimate D2E/DX2                !
 ! D51   D(21,11,12,13)        179.9997         estimate D2E/DX2                !
 ! D52   D(21,11,12,22)          0.0001         estimate D2E/DX2                !
 ! D53   D(11,12,13,9)           0.0006         estimate D2E/DX2                !
 ! D54   D(22,12,13,9)        -179.9997         estimate D2E/DX2                !
 ! D55   D(8,14,15,5)            0.0            estimate D2E/DX2                !
 ! D56   D(23,14,15,5)        -180.0            estimate D2E/DX2                !
 --------------------------------------------------------------------------------
 Trust Radius=3.00D-01 FncErr=1.00D-07 GrdErr=1.00D-06 EigMax=2.50D+02 EigMin=1.00D-04
 Number of steps in this run=    132 maximum allowed number of steps=    144.
 GradGradGradGradGradGradGradGradGradGradGradGradGradGradGradGradGradGrad

 Leave Link  103 at Sun Jan 18 23:58:56 2026, MaxMem=  8053063680 cpu:               0.2 elap:               0.1
 (Enter /appl/Gaussian16/AVX_revB01/g16/l202.exe)
                          Input orientation:                          
 ---------------------------------------------------------------------
 Center     Atomic      Atomic             Coordinates (Angstroms)
 Number     Number       Type             X           Y           Z
 ---------------------------------------------------------------------
      1          6           0        4.995049    0.445765   -0.366772
      2          6           0        5.139858   -0.114288    0.864720
      3         16           0        3.634128   -0.524950    1.576458
      4          6           0        2.777596    0.069778    0.185173
      5          6           0        1.341676    0.030659    0.099475
      6          6           0        0.528840   -0.484601    1.120181
      7          7           0       -0.780764   -0.515355    1.031350
      8          6           0       -1.341677   -0.030654   -0.086225
      9          6           0       -2.777596   -0.069770   -0.171922
     10          6           0       -3.649133   -0.552137    0.770496
     11          6           0       -4.995049   -0.445767    0.380018
     12          6           0       -5.139857    0.114258   -0.851486
     13         16           0       -3.634129    0.524974   -1.563199
     14          6           0       -0.528840    0.484608   -1.106931
     15          7           0        0.780764    0.515361   -1.018100
     16          6           0        3.649132    0.552154   -0.757240
     17          1           0        5.822455    0.770200   -0.971998
     18          1           0        6.045043   -0.313242    1.403538
     19          1           0        0.957905   -0.881391    2.031484
     20          1           0       -3.309470   -0.963516    1.702821
     21          1           0       -5.822455   -0.770209    0.985241
     22          1           0       -6.045040    0.313183   -1.390318
     23          1           0       -0.957905    0.881398   -2.018233
     24          1           0        3.309469    0.963543   -1.689561
 ---------------------------------------------------------------------
                    Distance matrix (angstroms):
                    1          2          3          4          5
     1  C    0.000000
     2  C    1.360589   0.000000
     3  S    2.563305   1.715353   0.000000
     4  C    2.315838   2.464944   1.738684   0.000000
     5  C    3.706323   3.877215   2.783077   1.439006   0.000000
     6  C    4.798296   4.632913   3.138891   2.497696   1.402868
     7  N    6.019844   5.936530   4.448428   3.704096   2.381444
     8  C    6.360800   6.551457   5.269485   4.129425   2.690470
     9  C    7.792160   7.985155   6.661399   5.568407   4.129425
    10  C    8.775595   8.800395   7.327769   6.483226   5.069329
    11  C   10.057564  10.151904   8.712086   7.792160   6.360800
    12  C   10.151904  10.424497   9.126133   7.985155   6.551457
    13  S    8.712086   9.126133   7.986699   6.661399   5.269485
    14  C    5.573392   6.031602   5.054709   3.574092   2.271633
    15  N    4.264888   4.789903   3.994454   2.373552   1.341093
    16  C    1.405446   2.301557   2.570316   1.371278   2.516002
    17  H    1.075248   2.149835   3.600113   3.331787   4.666086
    18  H    2.193759   1.072039   2.426362   3.508180   4.892904
    19  H    4.879704   4.408914   2.737932   2.761316   2.170663
    20  H    8.673772   8.533156   6.958582   6.357934   5.019190
    21  H   10.969272  10.982580   9.478220   8.677935   7.262971
    22  H   11.088228  11.417963  10.158274   8.965507   7.540748
    23  H    6.193123   6.818030   5.998866   4.412221   3.239833
    24  H    2.204325   3.322108   3.603872   2.143906   2.818355
                    6          7          8          9         10
     6  C    0.000000
     7  N    1.312973   0.000000
     8  C    2.271633   1.341093   0.000000
     9  C    3.574092   2.373552   1.439006   0.000000
    10  C    4.193124   2.880440   2.516002   1.371278   0.000000
    11  C    5.573392   4.264888   3.706323   2.315838   1.405446
    12  C    6.031602   4.789903   3.877215   2.464944   2.301557
    13  S    5.054709   3.994454   2.783077   1.738684   2.570316
    14  C    2.649166   2.373950   1.402868   2.497696   3.786264
    15  N    2.373950   2.775066   2.381444   3.704096   4.895162
    16  C    3.786264   4.895162   5.069329   6.483226   7.537778
    17  H    5.828731   7.019157   7.262971   8.677935   9.720897
    18  H    5.526134   6.838934   7.540748   8.965507   9.717760
    19  H    1.082595   2.038926   3.239833   4.412221   4.787828
    20  H    3.911707   2.654444   2.818355   2.143906   1.074167
    21  H    6.359145   5.048338   4.666086   3.331787   2.194767
    22  H    7.082017   5.853508   4.892904   3.508180   3.340399
    23  H    3.731757   3.358907   2.170663   2.761316   4.132159
    24  H    4.209949   5.130351   5.019190   6.357934   7.534673
                   11         12         13         14         15
    11  C    0.000000
    12  C    1.360589   0.000000
    13  S    2.563305   1.715353   0.000000
    14  C    4.798296   4.632913   3.138891   0.000000
    15  N    6.019844   5.936530   4.448428   1.312973   0.000000
    16  C    8.775595   8.800395   7.327769   4.193124   2.880440
    17  H   10.969272  10.982580   9.478220   6.359145   5.048338
    18  H   11.088228  11.417963  10.158274   7.082017   5.853508
    19  H    6.193123   6.818030   5.998866   3.731757   3.358907
    20  H    2.204325   3.322107   3.603872   4.209949   5.130351
    21  H    1.075248   2.149835   3.600113   5.828731   7.019157
    22  H    2.193759   1.072039   2.426362   5.526134   6.838934
    23  H    4.879704   4.408914   2.737932   1.082595   2.038926
    24  H    8.673772   8.533156   6.958582   3.911707   2.654444
                   16         17         18         19         20
    16  C    0.000000
    17  H    2.194767   0.000000
    18  H    3.340399   2.620413   0.000000
    19  H    4.132159   5.950841   5.157139   0.000000
    20  H    7.534673   9.672254   9.381863   4.280800   0.000000
    21  H    9.720897  11.908299  11.883657   6.861506   2.620569
    22  H    9.717760  11.883657  12.424498   7.885238   4.322131
    23  H    4.787828   6.861506   7.885238   4.814350   4.772820
    24  H    1.074167   2.620569   4.322131   4.772820   7.683239
                   21         22         23         24
    21  H    0.000000
    22  H    2.620413   0.000000
    23  H    5.950841   5.157139   0.000000
    24  H    9.672254   9.381862   4.280800   0.000000
 Stoichiometry    C12H8N2S2
 Framework group  C1[X(C12H8N2S2)]
 Deg. of freedom    66
 Full point group                 C1      NOp   1
 Largest Abelian subgroup         C1      NOp   1
 Largest concise Abelian subgroup C1      NOp   1
                         Standard orientation:                         
 ---------------------------------------------------------------------
 Center     Atomic      Atomic             Coordinates (Angstroms)
 Number     Number       Type             X           Y           Z
 ---------------------------------------------------------------------
      1          6           0        4.899552   -1.132711    0.000005
      2          6           0        5.208700    0.192291    0.000030
      3         16           0        3.812354    1.188611   -0.000015
      4          6           0        2.776440   -0.207778   -0.000001
      5          6           0        1.342006   -0.093145    0.000001
      6          6           0        0.673834    1.140381    0.000002
      7          7           0       -0.635850    1.233265    0.000002
      8          6           0       -1.342006    0.093145    0.000000
      9          6           0       -2.776440    0.207778    0.000000
     10          6           0       -3.513310    1.364249   -0.000001
     11          6           0       -4.899552    1.132711    0.000004
     12          6           0       -5.208700   -0.192291    0.000010
     13         16           0       -3.812354   -1.188611   -0.000004
     14          6           0       -0.673834   -1.140381   -0.000002
     15          7           0        0.635850   -1.233265   -0.000001
     16          6           0        3.513310   -1.364249   -0.000011
     17          1           0        5.638049   -1.914234    0.000011
     18          1           0        6.178159    0.649912    0.000056
     19          1           0        1.221592    2.074176    0.000002
     20          1           0       -3.051317    2.333990   -0.000003
     21          1           0       -5.638049    1.914234    0.000006
     22          1           0       -6.178159   -0.649912    0.000017
     23          1           0       -1.221592   -2.074176   -0.000003
     24          1           0        3.051316   -2.333990   -0.000020
 ---------------------------------------------------------------------
 Rotational constants (GHZ):           1.8756802           0.1763175           0.1611674
 Leave Link  202 at Sun Jan 18 23:58:56 2026, MaxMem=  8053063680 cpu:               0.0 elap:               0.0
 (Enter /appl/Gaussian16/AVX_revB01/g16/l301.exe)
 Standard basis: 6-31G(d) (6D, 7F)
 Ernie: Thresh=  0.10000D-02 Tol=  0.10000D-05 Strict=F.
 There are   264 symmetry adapted cartesian basis functions of A   symmetry.
 There are   264 symmetry adapted basis functions of A   symmetry.
   264 basis functions,   528 primitive gaussians,   264 cartesian basis functions
    63 alpha electrons       63 beta electrons
       nuclear repulsion energy      1161.7986361606 Hartrees.
 IExCor=  402 DFT=T Ex+Corr=B3LYP ExCW=0 ScaHFX=  0.200000
 ScaDFX=  0.800000  0.720000  1.000000  0.810000 ScalE2=  1.000000  1.000000
 IRadAn=      5 IRanWt=     -1 IRanGd=            0 ICorTp=0 IEmpDi=  4
 NAtoms=   24 NActive=   24 NUniq=   24 SFac= 1.00D+00 NAtFMM=   60 NAOKFM=F Big=F
 Integral buffers will be    131072 words long.
 Raffenetti 2 integral format.
 Two-electron integral symmetry is turned on.
 Leave Link  301 at Sun Jan 18 23:58:57 2026, MaxMem=  8053063680 cpu:               1.2 elap:               0.1
 (Enter /appl/Gaussian16/AVX_revB01/g16/l302.exe)
 NPDir=0 NMtPBC=     1 NCelOv=     1 NCel=       1 NClECP=     1 NCelD=      1
         NCelK=      1 NCelE2=     1 NClLst=     1 CellRange=     0.0.
 One-electron integrals computed using PRISM.
 One-electron integral symmetry used in STVInt
 NBasis=   264 RedAO= T EigKep=  8.56D-04  NBF=   264
 NBsUse=   264 1.00D-06 EigRej= -1.00D+00 NBFU=   264
 Precomputing XC quadrature grid using
 IXCGrd= 4 IRadAn=           5 IRanWt=          -1 IRanGd=           0 AccXCQ= 0.00D+00.
 Generated NRdTot=       0 NPtTot=           0 NUsed=           0 NTot=          32
 NSgBfM=   260   260   260   260   260 MxSgAt=    24 MxSgA2=    24.
 Leave Link  302 at Sun Jan 18 23:58:57 2026, MaxMem=  8053063680 cpu:               3.0 elap:               0.2
 (Enter /appl/Gaussian16/AVX_revB01/g16/l303.exe)
 DipDrv:  MaxL=1.
 Leave Link  303 at Sun Jan 18 23:58:57 2026, MaxMem=  8053063680 cpu:               0.6 elap:               0.1
 (Enter /appl/Gaussian16/AVX_revB01/g16/l401.exe)
 ExpMin= 1.17D-01 ExpMax= 2.19D+04 ExpMxC= 3.30D+03 IAcc=3 IRadAn=         5 AccDes= 0.00D+00
 Harris functional with IExCor=  402 and IRadAn=       5 diagonalized for initial guess.
 HarFok:  IExCor=  402 AccDes= 0.00D+00 IRadAn=         5 IDoV= 1 UseB2=F ITyADJ=14
 ICtDFT=  3500011 ScaDFX=  1.000000  1.000000  1.000000  1.000000
 FoFCou: FMM=F IPFlag=           0 FMFlag=      100000 FMFlg1=           0
         NFxFlg=           0 DoJE=T BraDBF=F KetDBF=T FulRan=T
         wScrn=  0.000000 ICntrl=       500 IOpCl=  0 I1Cent=   200000004 NGrid=           0
         NMat0=    1 NMatS0=      1 NMatT0=    0 NMatD0=    1 NMtDS0=    0 NMtDT0=    0
 Petite list used in FoFCou.
 Harris En= -1367.85731464224    
 JPrj=0 DoOrth=F DoCkMO=F.
 Leave Link  401 at Sun Jan 18 23:58:58 2026, MaxMem=  8053063680 cpu:              11.0 elap:               0.7
 (Enter /appl/Gaussian16/AVX_revB01/g16/l502.exe)
 Integral symmetry usage will be decided dynamically.
 Closed shell SCF:
 Using DIIS extrapolation, IDIIS=  1040.
 NGot=  8053063680 LenX=  8052917272 LenY=  8052847135
 Requested convergence on RMS density matrix=1.00D-08 within  32 cycles.
 Requested convergence on MAX density matrix=1.00D-06.
 Requested convergence on             energy=1.00D-06.
 No special actions if energy rises.
 Fock matrices will be formed incrementally for  20 cycles.
 Integral accuracy reduced to 1.0D-05 until final iterations.

 Cycle   1  Pass 0  IDiag  1:
 FoFJK:  IHMeth= 1 ICntrl=       0 DoSepK=F KAlg= 0 I1Cent=           0 FoldK=F
 IRaf= 770000000 NMat=       1 IRICut=       1 DoRegI=T DoRafI=F ISym2E= 0 IDoP0=0 IntGTp=1.
 FoFCou: FMM=F IPFlag=           0 FMFlag=      100000 FMFlg1=           0
         NFxFlg=           0 DoJE=F BraDBF=F KetDBF=F FulRan=T
         wScrn=  0.000000 ICntrl=         0 IOpCl=  0 I1Cent=           0 NGrid=           0
         NMat0=    1 NMatS0=      1 NMatT0=    0 NMatD0=    1 NMtDS0=    0 NMtDT0=    0
 Symmetry not used in FoFCou.
 E= -1367.44015091539    
 DIIS: error= 4.39D-02 at cycle   1 NSaved=   1.
 NSaved= 1 IEnMin= 1 EnMin= -1367.44015091539     IErMin= 1 ErrMin= 4.39D-02
 ErrMax= 4.39D-02  0.00D+00 EMaxC= 1.00D-01 BMatC= 4.67D-01 BMatP= 4.67D-01
 IDIUse=3 WtCom= 5.61D-01 WtEn= 4.39D-01
 Coeff-Com:  0.100D+01
 Coeff-En:   0.100D+01
 Coeff:      0.100D+01
 Gap=     0.171 Goal=   None    Shift=    0.000
 GapD=    0.171 DampG=1.000 DampE=0.500 DampFc=0.5000 IDamp=-1.
 Damping current iteration by 5.00D-01
 RMSDP=7.97D-03 MaxDP=2.77D-01              OVMax= 4.11D-01

 Cycle   2  Pass 0  IDiag  1:
 RMSU=  3.96D-03    CP:  9.81D-01
 E= -1367.57445324214     Delta-E=       -0.134302326759 Rises=F Damp=T
 DIIS: error= 1.44D-02 at cycle   2 NSaved=   2.
 NSaved= 2 IEnMin= 2 EnMin= -1367.57445324214     IErMin= 2 ErrMin= 1.44D-02
 ErrMax= 1.44D-02  0.00D+00 EMaxC= 1.00D-01 BMatC= 6.54D-02 BMatP= 4.67D-01
 IDIUse=3 WtCom= 8.56D-01 WtEn= 1.44D-01
 Coeff-Com:  0.205D+00 0.795D+00
 Coeff-En:   0.363D+00 0.637D+00
 Coeff:      0.228D+00 0.772D+00
 Gap=     0.219 Goal=   None    Shift=    0.000
 RMSDP=2.63D-03 MaxDP=7.82D-02 DE=-1.34D-01 OVMax= 3.45D-01

 Cycle   3  Pass 0  IDiag  1:
 RMSU=  2.05D-03    CP:  9.73D-01  5.86D-01
 E= -1367.91791549951     Delta-E=       -0.343462257370 Rises=F Damp=F
 DIIS: error= 9.96D-03 at cycle   3 NSaved=   3.
 NSaved= 3 IEnMin= 3 EnMin= -1367.91791549951     IErMin= 3 ErrMin= 9.96D-03
 ErrMax= 9.96D-03  0.00D+00 EMaxC= 1.00D-01 BMatC= 2.55D-02 BMatP= 6.54D-02
 IDIUse=3 WtCom= 9.00D-01 WtEn= 9.96D-02
 Coeff-Com:  0.586D-01 0.371D+00 0.570D+00
 Coeff-En:   0.000D+00 0.000D+00 0.100D+01
 Coeff:      0.527D-01 0.334D+00 0.613D+00
 Gap=     0.136 Goal=   None    Shift=    0.000
 RMSDP=1.16D-03 MaxDP=2.82D-02 DE=-3.43D-01 OVMax= 7.97D-02

 Cycle   4  Pass 0  IDiag  1:
 RMSU=  8.99D-04    CP:  9.75D-01  6.67D-01  6.79D-01
 E= -1367.93889541883     Delta-E=       -0.020979919316 Rises=F Damp=F
 DIIS: error= 4.76D-03 at cycle   4 NSaved=   4.
 NSaved= 4 IEnMin= 4 EnMin= -1367.93889541883     IErMin= 4 ErrMin= 4.76D-03
 ErrMax= 4.76D-03  0.00D+00 EMaxC= 1.00D-01 BMatC= 7.86D-03 BMatP= 2.55D-02
 IDIUse=3 WtCom= 9.52D-01 WtEn= 4.76D-02
 Coeff-Com:  0.784D-02 0.594D-01 0.358D+00 0.574D+00
 Coeff-En:   0.000D+00 0.000D+00 0.244D+00 0.756D+00
 Coeff:      0.747D-02 0.566D-01 0.353D+00 0.583D+00
 Gap=     0.134 Goal=   None    Shift=    0.000
 RMSDP=4.28D-04 MaxDP=1.45D-02 DE=-2.10D-02 OVMax= 3.08D-02

 Cycle   5  Pass 0  IDiag  1:
 RMSU=  2.56D-04    CP:  9.75D-01  6.60D-01  7.53D-01  6.60D-01
 E= -1367.94675247295     Delta-E=       -0.007857054118 Rises=F Damp=F
 DIIS: error= 1.20D-03 at cycle   5 NSaved=   5.
 NSaved= 5 IEnMin= 5 EnMin= -1367.94675247295     IErMin= 5 ErrMin= 1.20D-03
 ErrMax= 1.20D-03  0.00D+00 EMaxC= 1.00D-01 BMatC= 5.01D-04 BMatP= 7.86D-03
 IDIUse=3 WtCom= 9.88D-01 WtEn= 1.20D-02
 Coeff-Com:  0.239D-02 0.173D-02 0.145D+00 0.310D+00 0.541D+00
 Coeff-En:   0.000D+00 0.000D+00 0.000D+00 0.000D+00 0.100D+01
 Coeff:      0.236D-02 0.171D-02 0.143D+00 0.306D+00 0.547D+00
 Gap=     0.135 Goal=   None    Shift=    0.000
 RMSDP=1.23D-04 MaxDP=4.30D-03 DE=-7.86D-03 OVMax= 7.61D-03

 Cycle   6  Pass 0  IDiag  1:
 RMSU=  7.13D-05    CP:  9.75D-01  6.52D-01  7.65D-01  6.87D-01  6.54D-01
 E= -1367.94718219248     Delta-E=       -0.000429719527 Rises=F Damp=F
 DIIS: error= 5.95D-04 at cycle   6 NSaved=   6.
 NSaved= 6 IEnMin= 6 EnMin= -1367.94718219248     IErMin= 6 ErrMin= 5.95D-04
 ErrMax= 5.95D-04  0.00D+00 EMaxC= 1.00D-01 BMatC= 8.42D-05 BMatP= 5.01D-04
 IDIUse=3 WtCom= 9.94D-01 WtEn= 5.95D-03
 Coeff-Com:  0.120D-02-0.614D-02 0.558D-01 0.139D+00 0.344D+00 0.467D+00
 Coeff-En:   0.000D+00 0.000D+00 0.000D+00 0.000D+00 0.102D+00 0.898D+00
 Coeff:      0.120D-02-0.611D-02 0.555D-01 0.138D+00 0.342D+00 0.469D+00
 Gap=     0.135 Goal=   None    Shift=    0.000
 RMSDP=4.55D-05 MaxDP=1.53D-03 DE=-4.30D-04 OVMax= 3.81D-03

 Cycle   7  Pass 0  IDiag  1:
 RMSU=  2.39D-05    CP:  9.75D-01  6.50D-01  7.68D-01  6.82D-01  6.84D-01
                    CP:  4.86D-01
 E= -1367.94726195216     Delta-E=       -0.000079759687 Rises=F Damp=F
 DIIS: error= 1.50D-04 at cycle   7 NSaved=   7.
 NSaved= 7 IEnMin= 7 EnMin= -1367.94726195216     IErMin= 7 ErrMin= 1.50D-04
 ErrMax= 1.50D-04  0.00D+00 EMaxC= 1.00D-01 BMatC= 5.70D-06 BMatP= 8.42D-05
 IDIUse=3 WtCom= 9.98D-01 WtEn= 1.50D-03
 Coeff-Com:  0.594D-03-0.352D-02 0.213D-01 0.548D-01 0.149D+00 0.274D+00
 Coeff-Com:  0.505D+00
 Coeff-En:   0.000D+00 0.000D+00 0.000D+00 0.000D+00 0.000D+00 0.212D-01
 Coeff-En:   0.979D+00
 Coeff:      0.593D-03-0.352D-02 0.212D-01 0.548D-01 0.148D+00 0.273D+00
 Coeff:      0.505D+00
 Gap=     0.135 Goal=   None    Shift=    0.000
 RMSDP=1.43D-05 MaxDP=5.38D-04 DE=-7.98D-05 OVMax= 1.23D-03

 Cycle   8  Pass 0  IDiag  1:
 RMSU=  8.20D-06    CP:  9.75D-01  6.50D-01  7.67D-01  6.88D-01  6.79D-01
                    CP:  5.56D-01  6.30D-01
 E= -1367.94726802634     Delta-E=       -0.000006074173 Rises=F Damp=F
 DIIS: error= 5.97D-05 at cycle   8 NSaved=   8.
 NSaved= 8 IEnMin= 8 EnMin= -1367.94726802634     IErMin= 8 ErrMin= 5.97D-05
 ErrMax= 5.97D-05  0.00D+00 EMaxC= 1.00D-01 BMatC= 4.41D-07 BMatP= 5.70D-06
 IDIUse=1 WtCom= 1.00D+00 WtEn= 0.00D+00
 Coeff-Com:  0.183D-03-0.956D-03 0.215D-02 0.556D-02 0.187D-01 0.585D-01
 Coeff-Com:  0.250D+00 0.666D+00
 Coeff:      0.183D-03-0.956D-03 0.215D-02 0.556D-02 0.187D-01 0.585D-01
 Coeff:      0.250D+00 0.666D+00
 Gap=     0.135 Goal=   None    Shift=    0.000
 RMSDP=3.79D-06 MaxDP=1.08D-04 DE=-6.07D-06 OVMax= 3.41D-04

 Initial convergence to 1.0D-05 achieved.  Increase integral accuracy.
 Cycle   9  Pass 1  IDiag  1:
 E= -1367.94727174587     Delta-E=       -0.000003719533 Rises=F Damp=F
 DIIS: error= 5.43D-05 at cycle   1 NSaved=   1.
 NSaved= 1 IEnMin= 1 EnMin= -1367.94727174587     IErMin= 1 ErrMin= 5.43D-05
 ErrMax= 5.43D-05  0.00D+00 EMaxC= 1.00D-01 BMatC= 1.83D-07 BMatP= 1.83D-07
 IDIUse=1 WtCom= 1.00D+00 WtEn= 0.00D+00
 Coeff-Com:  0.100D+01
 Coeff:      0.100D+01
 Gap=     0.135 Goal=   None    Shift=    0.000
 RMSDP=3.79D-06 MaxDP=1.08D-04 DE=-3.72D-06 OVMax= 1.11D-04

 Cycle  10  Pass 1  IDiag  1:
 RMSU=  1.49D-05    CP:  1.00D+00
 E= -1367.94727178082     Delta-E=       -0.000000034948 Rises=F Damp=F
 DIIS: error= 1.77D-05 at cycle   2 NSaved=   2.
 NSaved= 2 IEnMin= 2 EnMin= -1367.94727178082     IErMin= 2 ErrMin= 1.77D-05
 ErrMax= 1.77D-05  0.00D+00 EMaxC= 1.00D-01 BMatC= 1.04D-07 BMatP= 1.83D-07
 IDIUse=1 WtCom= 1.00D+00 WtEn= 0.00D+00
 Coeff-Com:  0.405D+00 0.595D+00
 Coeff:      0.405D+00 0.595D+00
 Gap=     0.135 Goal=   None    Shift=    0.000
 RMSDP=2.31D-06 MaxDP=9.26D-05 DE=-3.49D-08 OVMax= 1.14D-04

 Cycle  11  Pass 1  IDiag  1:
 RMSU=  2.28D-06    CP:  1.00D+00  9.80D-01
 E= -1367.94727184540     Delta-E=       -0.000000064586 Rises=F Damp=F
 DIIS: error= 1.26D-05 at cycle   3 NSaved=   3.
 NSaved= 3 IEnMin= 3 EnMin= -1367.94727184540     IErMin= 3 ErrMin= 1.26D-05
 ErrMax= 1.26D-05  0.00D+00 EMaxC= 1.00D-01 BMatC= 4.10D-08 BMatP= 1.04D-07
 IDIUse=1 WtCom= 1.00D+00 WtEn= 0.00D+00
 Coeff-Com:  0.286D-01 0.383D+00 0.589D+00
 Coeff:      0.286D-01 0.383D+00 0.589D+00
 Gap=     0.135 Goal=   None    Shift=    0.000
 RMSDP=9.45D-07 MaxDP=2.84D-05 DE=-6.46D-08 OVMax= 5.02D-05

 Cycle  12  Pass 1  IDiag  1:
 RMSU=  4.07D-07    CP:  1.00D+00  9.93D-01  6.37D-01
 E= -1367.94727188259     Delta-E=       -0.000000037191 Rises=F Damp=F
 DIIS: error= 2.63D-06 at cycle   4 NSaved=   4.
 NSaved= 4 IEnMin= 4 EnMin= -1367.94727188259     IErMin= 4 ErrMin= 2.63D-06
 ErrMax= 2.63D-06  0.00D+00 EMaxC= 1.00D-01 BMatC= 2.54D-09 BMatP= 4.10D-08
 IDIUse=1 WtCom= 1.00D+00 WtEn= 0.00D+00
 Coeff-Com: -0.148D-02 0.201D+00 0.345D+00 0.456D+00
 Coeff:     -0.148D-02 0.201D+00 0.345D+00 0.456D+00
 Gap=     0.135 Goal=   None    Shift=    0.000
 RMSDP=2.21D-07 MaxDP=7.36D-06 DE=-3.72D-08 OVMax= 1.23D-05

 Cycle  13  Pass 1  IDiag  1:
 RMSU=  7.89D-08    CP:  1.00D+00  9.95D-01  6.45D-01  4.99D-01
 E= -1367.94727188508     Delta-E=       -0.000000002484 Rises=F Damp=F
 DIIS: error= 4.54D-07 at cycle   5 NSaved=   5.
 NSaved= 5 IEnMin= 5 EnMin= -1367.94727188508     IErMin= 5 ErrMin= 4.54D-07
 ErrMax= 4.54D-07  0.00D+00 EMaxC= 1.00D-01 BMatC= 6.84D-11 BMatP= 2.54D-09
 IDIUse=1 WtCom= 1.00D+00 WtEn= 0.00D+00
 Coeff-Com: -0.168D-02 0.107D+00 0.185D+00 0.265D+00 0.445D+00
 Coeff:     -0.168D-02 0.107D+00 0.185D+00 0.265D+00 0.445D+00
 Gap=     0.135 Goal=   None    Shift=    0.000
 RMSDP=4.31D-08 MaxDP=1.56D-06 DE=-2.48D-09 OVMax= 2.53D-06

 Cycle  14  Pass 1  IDiag  1:
 RMSU=  2.55D-08    CP:  1.00D+00  9.95D-01  6.41D-01  5.07D-01  5.77D-01
 E= -1367.94727188515     Delta-E=       -0.000000000077 Rises=F Damp=F
 DIIS: error= 7.40D-08 at cycle   6 NSaved=   6.
 NSaved= 6 IEnMin= 6 EnMin= -1367.94727188515     IErMin= 6 ErrMin= 7.40D-08
 ErrMax= 7.40D-08  0.00D+00 EMaxC= 1.00D-01 BMatC= 2.11D-12 BMatP= 6.84D-11
 IDIUse=1 WtCom= 1.00D+00 WtEn= 0.00D+00
 Coeff-Com: -0.714D-03 0.415D-01 0.708D-01 0.103D+00 0.211D+00 0.574D+00
 Coeff:     -0.714D-03 0.415D-01 0.708D-01 0.103D+00 0.211D+00 0.574D+00
 Gap=     0.135 Goal=   None    Shift=    0.000
 RMSDP=9.56D-09 MaxDP=3.11D-07 DE=-7.69D-11 OVMax= 6.80D-07

 SCF Done:  E(RB3LYP) =  -1367.94727189     A.U. after   14 cycles
            NFock= 14  Conv=0.96D-08     -V/T= 2.0055
 KE= 1.360499791660D+03 PE=-5.541479589793D+03 EE= 1.651233890087D+03
 Leave Link  502 at Sun Jan 18 23:59:08 2026, MaxMem=  8053063680 cpu:             149.6 elap:               9.4
 (Enter /appl/Gaussian16/AVX_revB01/g16/l508.exe)
 QCSCF skips out because SCF is already converged.
 Leave Link  508 at Sun Jan 18 23:59:08 2026, MaxMem=  8053063680 cpu:               0.0 elap:               0.1
 (Enter /appl/Gaussian16/AVX_revB01/g16/l601.exe)
 Copying SCF densities to generalized density rwf, IOpCl= 0 IROHF=0.

 **********************************************************************

            Population analysis using the SCF Density.

 **********************************************************************

 Orbital symmetries:
       Occupied  (A) (A) (A) (A) (A) (A) (A) (A) (A) (A) (A) (A)
                 (A) (A) (A) (A) (A) (A) (A) (A) (A) (A) (A) (A)
                 (A) (A) (A) (A) (A) (A) (A) (A) (A) (A) (A) (A)
                 (A) (A) (A) (A) (A) (A) (A) (A) (A) (A) (A) (A)
                 (A) (A) (A) (A) (A) (A) (A) (A) (A) (A) (A) (A)
                 (A) (A) (A)
       Virtual   (A) (A) (A) (A) (A) (A) (A) (A) (A) (A) (A) (A)
                 (A) (A) (A) (A) (A) (A) (A) (A) (A) (A) (A) (A)
                 (A) (A) (A) (A) (A) (A) (A) (A) (A) (A) (A) (A)
                 (A) (A) (A) (A) (A) (A) (A) (A) (A) (A) (A) (A)
                 (A) (A) (A) (A) (A) (A) (A) (A) (A) (A) (A) (A)
                 (A) (A) (A) (A) (A) (A) (A) (A) (A) (A) (A) (A)
                 (A) (A) (A) (A) (A) (A) (A) (A) (A) (A) (A) (A)
                 (A) (A) (A) (A) (A) (A) (A) (A) (A) (A) (A) (A)
                 (A) (A) (A) (A) (A) (A) (A) (A) (A) (A) (A) (A)
                 (A) (A) (A) (A) (A) (A) (A) (A) (A) (A) (A) (A)
                 (A) (A) (A) (A) (A) (A) (A) (A) (A) (A) (A) (A)
                 (A) (A) (A) (A) (A) (A) (A) (A) (A) (A) (A) (A)
                 (A) (A) (A) (A) (A) (A) (A) (A) (A) (A) (A) (A)
                 (A) (A) (A) (A) (A) (A) (A) (A) (A) (A) (A) (A)
                 (A) (A) (A) (A) (A) (A) (A) (A) (A) (A) (A) (A)
                 (A) (A) (A) (A) (A) (A) (A) (A) (A) (A) (A) (A)
                 (A) (A) (A) (A) (A) (A) (A) (A) (A)
 The electronic state is 1-A.
 Alpha  occ. eigenvalues --  -88.91280 -88.91280 -14.34486 -14.34486 -10.24066
 Alpha  occ. eigenvalues --  -10.24066 -10.23124 -10.23123 -10.22036 -10.22036
 Alpha  occ. eigenvalues --  -10.21820 -10.21820 -10.19456 -10.19456 -10.19195
 Alpha  occ. eigenvalues --  -10.19195  -7.97468  -7.97468  -5.93863  -5.93863
 Alpha  occ. eigenvalues --   -5.93498  -5.93498  -5.93173  -5.93173  -0.99049
 Alpha  occ. eigenvalues --   -0.91893  -0.88942  -0.88938  -0.80622  -0.75654
 Alpha  occ. eigenvalues --   -0.74449  -0.74270  -0.70980  -0.66464  -0.65858
 Alpha  occ. eigenvalues --   -0.57784  -0.56793  -0.56711  -0.55047  -0.52842
 Alpha  occ. eigenvalues --   -0.52210  -0.51348  -0.46976  -0.46610  -0.44104
 Alpha  occ. eigenvalues --   -0.41804  -0.40393  -0.40119  -0.39982  -0.39756
 Alpha  occ. eigenvalues --   -0.39034  -0.38704  -0.37995  -0.35137  -0.34811
 Alpha  occ. eigenvalues --   -0.33562  -0.30546  -0.30185  -0.25872  -0.25810
 Alpha  occ. eigenvalues --   -0.24859  -0.24822  -0.20508
 Alpha virt. eigenvalues --   -0.06982  -0.03708  -0.01541   0.02559   0.02889
 Alpha virt. eigenvalues --    0.03265   0.06492   0.08910   0.09332   0.09915
 Alpha virt. eigenvalues --    0.11257   0.11435   0.15015   0.15228   0.16778
 Alpha virt. eigenvalues --    0.16952   0.17468   0.18439   0.18525   0.21724
 Alpha virt. eigenvalues --    0.23359   0.24091   0.26678   0.27468   0.29365
 Alpha virt. eigenvalues --    0.30403   0.32135   0.33457   0.34857   0.35711
 Alpha virt. eigenvalues --    0.35804   0.35923   0.37831   0.40158   0.41457
 Alpha virt. eigenvalues --    0.42333   0.43033   0.43580   0.45455   0.48160
 Alpha virt. eigenvalues --    0.50322   0.51208   0.52128   0.52347   0.54075
 Alpha virt. eigenvalues --    0.54155   0.55179   0.55772   0.55984   0.59027
 Alpha virt. eigenvalues --    0.59130   0.59452   0.59526   0.60809   0.61030
 Alpha virt. eigenvalues --    0.61262   0.62058   0.63854   0.64777   0.65899
 Alpha virt. eigenvalues --    0.67532   0.68262   0.69505   0.70954   0.75477
 Alpha virt. eigenvalues --    0.77443   0.79006   0.79286   0.80009   0.80173
 Alpha virt. eigenvalues --    0.81306   0.82627   0.83021   0.83315   0.83957
 Alpha virt. eigenvalues --    0.85024   0.85338   0.86334   0.87129   0.87958
 Alpha virt. eigenvalues --    0.87992   0.88631   0.90753   0.91709   0.93703
 Alpha virt. eigenvalues --    0.93964   0.94137   0.97070   0.97072   1.00012
 Alpha virt. eigenvalues --    1.01175   1.01616   1.03166   1.03589   1.04278
 Alpha virt. eigenvalues --    1.08155   1.09762   1.11719   1.11985   1.13844
 Alpha virt. eigenvalues --    1.17396   1.19975   1.21314   1.23567   1.25663
 Alpha virt. eigenvalues --    1.27005   1.29662   1.30823   1.31500   1.32679
 Alpha virt. eigenvalues --    1.38043   1.38815   1.39026   1.39415   1.45038
 Alpha virt. eigenvalues --    1.45115   1.45795   1.47698   1.51017   1.51102
 Alpha virt. eigenvalues --    1.54101   1.54605   1.58199   1.61446   1.61611
 Alpha virt. eigenvalues --    1.66205   1.73548   1.75113   1.77572   1.78340
 Alpha virt. eigenvalues --    1.79064   1.83195   1.83769   1.88239   1.89501
 Alpha virt. eigenvalues --    1.89746   1.92185   1.93782   1.94944   1.96156
 Alpha virt. eigenvalues --    1.97650   1.99866   2.07771   2.12657   2.13359
 Alpha virt. eigenvalues --    2.14559   2.18096   2.19172   2.20796   2.20924
 Alpha virt. eigenvalues --    2.21777   2.24049   2.25369   2.25734   2.26545
 Alpha virt. eigenvalues --    2.30387   2.31794   2.32146   2.33149   2.35353
 Alpha virt. eigenvalues --    2.37085   2.40847   2.45055   2.47395   2.50092
 Alpha virt. eigenvalues --    2.52145   2.55463   2.56377   2.56694   2.64094
 Alpha virt. eigenvalues --    2.65750   2.68083   2.71278   2.73816   2.80188
 Alpha virt. eigenvalues --    2.81777   2.86416   2.89204   2.90247   2.94029
 Alpha virt. eigenvalues --    3.06768   3.10650   3.11111   3.25647   3.48079
 Alpha virt. eigenvalues --    3.93354   3.95539   4.04194   4.08107   4.12047
 Alpha virt. eigenvalues --    4.12173   4.12767   4.13946   4.23036   4.28986
 Alpha virt. eigenvalues --    4.31595   4.37342   4.41696   4.43168   4.57102
 Alpha virt. eigenvalues --    4.64051
          Condensed to atoms (all electrons):
               1          2          3          4          5          6
     1  C    4.836259   0.577035  -0.081392  -0.024985   0.006559  -0.000373
     2  C    0.577035   5.233446   0.321055  -0.060952   0.004037   0.000085
     3  S   -0.081392   0.321055  15.340764   0.332349  -0.066151  -0.000963
     4  C   -0.024985  -0.060952   0.332349   5.352336   0.317070  -0.072435
     5  C    0.006559   0.004037  -0.066151   0.317070   4.736909   0.399963
     6  C   -0.000373   0.000085  -0.000963  -0.072435   0.399963   5.030891
     7  N    0.000001  -0.000001   0.000349   0.005959  -0.017654   0.448895
     8  C    0.000001   0.000000   0.000035   0.001438  -0.027563  -0.065296
     9  C    0.000000   0.000000   0.000001   0.000009   0.001438   0.007797
    10  C   -0.000000  -0.000000  -0.000000  -0.000001  -0.000009   0.000376
    11  C    0.000000  -0.000000  -0.000000   0.000000   0.000001  -0.000004
    12  C   -0.000000  -0.000000   0.000000   0.000000   0.000000   0.000002
    13  S   -0.000000   0.000000   0.000000   0.000001   0.000035  -0.000198
    14  C   -0.000004   0.000002  -0.000198   0.007797  -0.065296  -0.039023
    15  N    0.000610  -0.000031   0.003535  -0.097564   0.468674  -0.083965
    16  C    0.488977  -0.048229  -0.098590   0.492015  -0.008629   0.011091
    17  H    0.363567  -0.051266   0.007094   0.005244  -0.000141   0.000000
    18  H   -0.022556   0.357797  -0.037564   0.002091  -0.000113   0.000005
    19  H    0.000000   0.000050   0.008157  -0.002171  -0.061626   0.367452
    20  H   -0.000000  -0.000000  -0.000000  -0.000000   0.000012   0.000078
    21  H   -0.000000   0.000000   0.000000  -0.000000  -0.000000  -0.000000
    22  H    0.000000   0.000000   0.000000  -0.000000  -0.000000  -0.000000
    23  H   -0.000000   0.000000   0.000007  -0.000105   0.005399   0.000177
    24  H   -0.047411   0.006756   0.007130  -0.048960  -0.010319   0.000364
               7          8          9         10         11         12
     1  C    0.000001   0.000001   0.000000  -0.000000   0.000000  -0.000000
     2  C   -0.000001   0.000000   0.000000  -0.000000  -0.000000  -0.000000
     3  S    0.000349   0.000035   0.000001  -0.000000  -0.000000   0.000000
     4  C    0.005959   0.001438   0.000009  -0.000001   0.000000   0.000000
     5  C   -0.017654  -0.027563   0.001438  -0.000009   0.000001   0.000000
     6  C    0.448895  -0.065296   0.007797   0.000376  -0.000004   0.000002
     7  N    6.805329   0.468674  -0.097564  -0.005234   0.000610  -0.000031
     8  C    0.468674   4.736909   0.317070  -0.008629   0.006559   0.004037
     9  C   -0.097564   0.317070   5.352336   0.492015  -0.024985  -0.060952
    10  C   -0.005234  -0.008629   0.492015   4.941852   0.488977  -0.048229
    11  C    0.000610   0.006559  -0.024985   0.488977   4.836259   0.577035
    12  C   -0.000031   0.004037  -0.060952  -0.048229   0.577035   5.233446
    13  S    0.003535  -0.066151   0.332349  -0.098590  -0.081392   0.321055
    14  C   -0.083965   0.399963  -0.072435   0.011091  -0.000373   0.000085
    15  N   -0.029003  -0.017654   0.005959  -0.000156   0.000001  -0.000001
    16  C   -0.000156  -0.000009  -0.000001   0.000000  -0.000000  -0.000000
    17  H   -0.000000  -0.000000  -0.000000  -0.000000  -0.000000   0.000000
    18  H    0.000000  -0.000000  -0.000000   0.000000   0.000000   0.000000
    19  H   -0.050478   0.005399  -0.000105  -0.000040  -0.000000   0.000000
    20  H    0.012615  -0.010319  -0.048960   0.367919  -0.047411   0.006756
    21  H   -0.000003  -0.000141   0.005244  -0.037607   0.363567  -0.051266
    22  H    0.000001  -0.000113   0.002091   0.004875  -0.022556   0.357797
    23  H    0.003990  -0.061626  -0.002171  -0.000202   0.000000   0.000050
    24  H    0.000001   0.000012  -0.000000   0.000000  -0.000000  -0.000000
              13         14         15         16         17         18
     1  C   -0.000000  -0.000004   0.000610   0.488977   0.363567  -0.022556
     2  C    0.000000   0.000002  -0.000031  -0.048229  -0.051266   0.357797
     3  S    0.000000  -0.000198   0.003535  -0.098590   0.007094  -0.037564
     4  C    0.000001   0.007797  -0.097564   0.492015   0.005244   0.002091
     5  C    0.000035  -0.065296   0.468674  -0.008629  -0.000141  -0.000113
     6  C   -0.000198  -0.039023  -0.083965   0.011091   0.000000   0.000005
     7  N    0.003535  -0.083965  -0.029003  -0.000156  -0.000000   0.000000
     8  C   -0.066151   0.399963  -0.017654  -0.000009  -0.000000  -0.000000
     9  C    0.332349  -0.072435   0.005959  -0.000001  -0.000000  -0.000000
    10  C   -0.098590   0.011091  -0.000156   0.000000  -0.000000   0.000000
    11  C   -0.081392  -0.000373   0.000001  -0.000000  -0.000000   0.000000
    12  C    0.321055   0.000085  -0.000001  -0.000000   0.000000   0.000000
    13  S   15.340764  -0.000963   0.000349  -0.000000   0.000000   0.000000
    14  C   -0.000963   5.030891   0.448895   0.000376  -0.000000  -0.000000
    15  N    0.000349   0.448895   6.805329  -0.005234  -0.000003   0.000001
    16  C   -0.000000   0.000376  -0.005234   4.941852  -0.037607   0.004875
    17  H    0.000000  -0.000000  -0.000003  -0.037607   0.573811  -0.003449
    18  H    0.000000  -0.000000   0.000001   0.004875  -0.003449   0.524896
    19  H    0.000007   0.000177   0.003990  -0.000202   0.000000   0.000001
    20  H    0.007130   0.000364   0.000001   0.000000   0.000000   0.000000
    21  H    0.007094   0.000000  -0.000000  -0.000000  -0.000000   0.000000
    22  H   -0.037564   0.000005   0.000000   0.000000   0.000000  -0.000000
    23  H    0.008157   0.367452  -0.050478  -0.000040   0.000000   0.000000
    24  H   -0.000000   0.000078   0.012615   0.367919  -0.002594  -0.000102
              19         20         21         22         23         24
     1  C    0.000000  -0.000000  -0.000000   0.000000  -0.000000  -0.047411
     2  C    0.000050  -0.000000   0.000000   0.000000   0.000000   0.006756
     3  S    0.008157  -0.000000   0.000000   0.000000   0.000007   0.007130
     4  C   -0.002171  -0.000000  -0.000000  -0.000000  -0.000105  -0.048960
     5  C   -0.061626   0.000012  -0.000000  -0.000000   0.005399  -0.010319
     6  C    0.367452   0.000078  -0.000000  -0.000000   0.000177   0.000364
     7  N   -0.050478   0.012615  -0.000003   0.000001   0.003990   0.000001
     8  C    0.005399  -0.010319  -0.000141  -0.000113  -0.061626   0.000012
     9  C   -0.000105  -0.048960   0.005244   0.002091  -0.002171  -0.000000
    10  C   -0.000040   0.367919  -0.037607   0.004875  -0.000202   0.000000
    11  C   -0.000000  -0.047411   0.363567  -0.022556   0.000000  -0.000000
    12  C    0.000000   0.006756  -0.051266   0.357797   0.000050  -0.000000
    13  S    0.000007   0.007130   0.007094  -0.037564   0.008157  -0.000000
    14  C    0.000177   0.000364   0.000000   0.000005   0.367452   0.000078
    15  N    0.003990   0.000001  -0.000000   0.000000  -0.050478   0.012615
    16  C   -0.000202   0.000000  -0.000000   0.000000  -0.000040   0.367919
    17  H    0.000000   0.000000  -0.000000   0.000000   0.000000  -0.002594
    18  H    0.000001   0.000000   0.000000  -0.000000   0.000000  -0.000102
    19  H    0.570325  -0.000044   0.000000   0.000000   0.000042  -0.000020
    20  H   -0.000044   0.550511  -0.002594  -0.000102  -0.000020   0.000000
    21  H    0.000000  -0.002594   0.573811  -0.003449   0.000000   0.000000
    22  H    0.000000  -0.000102  -0.003449   0.524896   0.000001   0.000000
    23  H    0.000042  -0.000020   0.000000   0.000001   0.570325  -0.000044
    24  H   -0.000020   0.000000   0.000000   0.000000  -0.000044   0.550511
 Mulliken charges:
               1
     1  C   -0.096289
     2  C   -0.339783
     3  S    0.264384
     4  C   -0.209134
     5  C    0.317406
     6  C   -0.004921
     7  N   -0.465870
     8  C    0.317406
     9  C   -0.209134
    10  C   -0.108407
    11  C   -0.096289
    12  C   -0.339783
    13  S    0.264384
    14  C   -0.004921
    15  N   -0.465870
    16  C   -0.108407
    17  H    0.145344
    18  H    0.174119
    19  H    0.159086
    20  H    0.164065
    21  H    0.145344
    22  H    0.174119
    23  H    0.159086
    24  H    0.164065
 Sum of Mulliken charges =  -0.00000
 Mulliken charges with hydrogens summed into heavy atoms:
               1
     1  C    0.049056
     2  C   -0.165664
     3  S    0.264384
     4  C   -0.209134
     5  C    0.317406
     6  C    0.154166
     7  N   -0.465870
     8  C    0.317406
     9  C   -0.209134
    10  C    0.055658
    11  C    0.049056
    12  C   -0.165664
    13  S    0.264384
    14  C    0.154166
    15  N   -0.465870
    16  C    0.055658
 Electronic spatial extent (au):  <R**2>=           6151.0734
 Charge=             -0.0000 electrons
 Dipole moment (field-independent basis, Debye):
    X=              0.0000    Y=              0.0000    Z=              0.0000  Tot=              0.0000
 Quadrupole moment (field-independent basis, Debye-Ang):
   XX=            -79.6089   YY=           -100.9593   ZZ=           -109.1164
   XY=             -0.4366   XZ=              0.0001   YZ=              0.0000
 Traceless Quadrupole moment (field-independent basis, Debye-Ang):
   XX=             16.9526   YY=             -4.3977   ZZ=            -12.5548
   XY=             -0.4366   XZ=              0.0001   YZ=              0.0000
 Octapole moment (field-independent basis, Debye-Ang**2):
  XXX=              0.0000  YYY=              0.0000  ZZZ=             -0.0001  XYY=             -0.0000
  XXY=             -0.0000  XXZ=              0.0013  XZZ=              0.0000  YZZ=              0.0000
  YYZ=             -0.0002  XYZ=              0.0001
 Hexadecapole moment (field-independent basis, Debye-Ang**3):
 XXXX=          -6260.6754 YYYY=           -787.5758 ZZZZ=           -117.3850 XXXY=            -12.1354
 XXXZ=              0.0053 YYYX=            -24.5098 YYYZ=              0.0000 ZZZX=             -0.0002
 ZZZY=             -0.0000 XXYY=          -1272.3461 XXZZ=          -1379.8852 YYZZ=           -164.8330
 XXYZ=              0.0006 YYXZ=             -0.0003 ZZXY=              8.7924
 N-N= 1.161798636161D+03 E-N=-5.541479571533D+03  KE= 1.360499791660D+03
 No NMR shielding tensors so no spin-rotation constants.
 Leave Link  601 at Sun Jan 18 23:59:09 2026, MaxMem=  8053063680 cpu:               1.6 elap:               0.1
 (Enter /appl/Gaussian16/AVX_revB01/g16/l701.exe)
 ... and contract with generalized density number  0.
 Compute integral first derivatives.
 Leave Link  701 at Sun Jan 18 23:59:09 2026, MaxMem=  8053063680 cpu:               2.3 elap:               0.2
 (Enter /appl/Gaussian16/AVX_revB01/g16/l702.exe)
 L702 exits ... SP integral derivatives will be done elsewhere.
 Leave Link  702 at Sun Jan 18 23:59:09 2026, MaxMem=  8053063680 cpu:               0.5 elap:               0.0
 (Enter /appl/Gaussian16/AVX_revB01/g16/l703.exe)
 Integral derivatives from FoFJK, PRISM(SPDF).
 Compute integral first derivatives, UseDBF=F ICtDFT=           0.
 Calling FoFJK, ICntrl=      2127 FMM=F ISym2X=0 I1Cent= 0 IOpClX= 0 NMat=1 NMatS=1 NMatT=0.
 FoFJK:  IHMeth= 1 ICntrl=    2127 DoSepK=F KAlg= 0 I1Cent=           0 FoldK=F
 IRaf=         0 NMat=       1 IRICut=       1 DoRegI=T DoRafI=F ISym2E= 0 IDoP0=0 IntGTp=1.
 FoFCou: FMM=F IPFlag=           0 FMFlag=      100000 FMFlg1=         800
         NFxFlg=           0 DoJE=F BraDBF=F KetDBF=F FulRan=T
         wScrn=  0.000000 ICntrl=      2127 IOpCl=  0 I1Cent=           0 NGrid=           0
         NMat0=    1 NMatS0=      1 NMatT0=    0 NMatD0=    1 NMtDS0=    0 NMtDT0=    0
 Symmetry not used in FoFCou.
 Leave Link  703 at Sun Jan 18 23:59:12 2026, MaxMem=  8053063680 cpu:              45.4 elap:               2.9
 (Enter /appl/Gaussian16/AVX_revB01/g16/l716.exe)
 Dipole        = 1.20716761D-08 8.22821988D-09 8.52386841D-07
 ***** Axes restored to original set *****
 -------------------------------------------------------------------
 Center     Atomic                   Forces (Hartrees/Bohr)
 Number     Number              X              Y              Z
 -------------------------------------------------------------------
      1        6           0.005528528    0.001276082   -0.002113508
      2        6           0.006561231   -0.002132337    0.005408302
      3       16          -0.001608165   -0.002754399    0.005773818
      4        6           0.001104998   -0.000412124    0.001030490
      5        6          -0.003160111   -0.000946527    0.001679139
      6        6           0.006235979    0.000204027    0.000297800
      7        7          -0.010084186   -0.003493588    0.006377756
      8        6           0.003160061    0.000947489   -0.001678692
      9        6          -0.001105151    0.000414879   -0.001029225
     10        6           0.004070679   -0.000861881    0.002351685
     11        6          -0.005528455   -0.001277598    0.002112810
     12        6          -0.006561365    0.002135098   -0.005407043
     13       16           0.001608361    0.002750752   -0.005775497
     14        6          -0.006235968   -0.000204336   -0.000297947
     15        7           0.010084184    0.003493630   -0.006377733
     16        6          -0.004070630    0.000860959   -0.002352101
     17        1           0.005464077    0.001917760   -0.003510075
     18        1           0.006792003   -0.001021111    0.003021563
     19        1           0.002223639   -0.001638892    0.003817373
     20        1           0.002583682   -0.002329742    0.005358252
     21        1          -0.005464058   -0.001918091    0.003509922
     22        1          -0.006792034    0.001021565   -0.003021347
     23        1          -0.002223630    0.001638798   -0.003817416
     24        1          -0.002583670    0.002329585   -0.005358327
 -------------------------------------------------------------------
 Cartesian Forces:  Max     0.010084186 RMS     0.003925625
 Leave Link  716 at Sun Jan 18 23:59:12 2026, MaxMem=  8053063680 cpu:               0.4 elap:               0.0
 (Enter /appl/Gaussian16/AVX_revB01/g16/l103.exe)

 GradGradGradGradGradGradGradGradGradGradGradGradGradGradGradGradGradGrad
 Berny optimization.
 FormGI is forming the generalized inverse of G from B-inverse, IUseBI=4.
 GSVD:  received Info=                   1 from GESDD.
 Internal  Forces:  Max     0.017266480 RMS     0.005098266
 Search for a local minimum.
 Step number   1 out of a maximum of  132
 All quantities printed in internal units (Hartrees-Bohrs-Radians)
 RMS Force = .50983D-02 SwitMx=.10000D-02 MixMth= 1
 Mixed Optimization -- RFO/linear search
 Second derivative matrix not updated -- first step.
 ITU=  0
     Eigenvalues ---    0.01573   0.01573   0.01783   0.01783   0.01852
     Eigenvalues ---    0.01852   0.01939   0.01995   0.02151   0.02174
     Eigenvalues ---    0.02174   0.02265   0.02265   0.02284   0.02284
     Eigenvalues ---    0.02299   0.02318   0.02387   0.02403   0.02403
     Eigenvalues ---    0.02670   0.16000   0.16000   0.16000   0.16000
     Eigenvalues ---    0.16000   0.16000   0.16000   0.16000   0.22129
     Eigenvalues ---    0.22129   0.22857   0.23789   0.23789   0.23834
     Eigenvalues ---    0.25000   0.25000   0.25000   0.25000   0.25000
     Eigenvalues ---    0.30882   0.30882   0.33137   0.33137   0.35683
     Eigenvalues ---    0.35683   0.36575   0.36575   0.36708   0.36708
     Eigenvalues ---    0.36974   0.36974   0.39722   0.39722   0.41888
     Eigenvalues ---    0.43300   0.43300   0.45148   0.47768   0.47768
     Eigenvalues ---    0.51575   0.51575   0.53567   0.56961   0.60105
     Eigenvalues ---    0.63715
 RFO step:  Lambda=-7.52921509D-03 EMin= 1.57277466D-02
 Linear search not attempted -- first point.
 Iteration  1 RMS(Cart)=  0.04920336 RMS(Int)=  0.00009510
 Iteration  2 RMS(Cart)=  0.00016766 RMS(Int)=  0.00000196
 Iteration  3 RMS(Cart)=  0.00000003 RMS(Int)=  0.00000196
 ITry= 1 IFail=0 DXMaxC= 1.98D-01 DCOld= 1.00D+10 DXMaxT= 3.00D-01 DXLimC= 3.00D+00 Rises=F
 Variable       Old X    -DE/DX   Delta X   Delta X   Delta X     New X
                                 (Linear)    (Quad)   (Total)
    R1        2.57114   0.01010   0.00000   0.01956   0.01956   2.59070
    R2        2.65591   0.01471   0.00000   0.03329   0.03328   2.68919
    R3        2.03192   0.00676   0.00000   0.01811   0.01811   2.05003
    R4        3.24155   0.00921   0.00000   0.02602   0.02602   3.26757
    R5        2.02586   0.00744   0.00000   0.01973   0.01973   2.04559
    R6        3.28564   0.00900   0.00000   0.02635   0.02635   3.31199
    R7        2.71933   0.01727   0.00000   0.04266   0.04266   2.76199
    R8        2.59134   0.00873   0.00000   0.01687   0.01687   2.60821
    R9        2.65104   0.00779   0.00000   0.01698   0.01698   2.66801
   R10        2.53430   0.00951   0.00000   0.01647   0.01647   2.55077
   R11        2.48116   0.01630   0.00000   0.02529   0.02529   2.50645
   R12        2.04581   0.00470   0.00000   0.01289   0.01289   2.05869
   R13        2.53430   0.00951   0.00000   0.01647   0.01647   2.55077
   R14        2.71933   0.01727   0.00000   0.04266   0.04266   2.76199
   R15        2.65104   0.00779   0.00000   0.01698   0.01698   2.66801
   R16        2.59134   0.00873   0.00000   0.01687   0.01687   2.60821
   R17        3.28564   0.00900   0.00000   0.02635   0.02635   3.31199
   R18        2.65591   0.01471   0.00000   0.03329   0.03328   2.68919
   R19        2.02988   0.00636   0.00000   0.01698   0.01698   2.04686
   R20        2.57114   0.01010   0.00000   0.01956   0.01956   2.59070
   R21        2.03192   0.00676   0.00000   0.01811   0.01811   2.05003
   R22        3.24155   0.00921   0.00000   0.02602   0.02602   3.26757
   R23        2.02586   0.00744   0.00000   0.01973   0.01973   2.04559
   R24        2.48116   0.01630   0.00000   0.02529   0.02529   2.50645
   R25        2.04581   0.00470   0.00000   0.01289   0.01289   2.05869
   R26        2.02988   0.00636   0.00000   0.01698   0.01698   2.04686
    A1        1.96551   0.00023   0.00000   0.00465   0.00464   1.97016
    A2        2.15528  -0.00053   0.00000  -0.00483  -0.00483   2.15045
    A3        2.16240   0.00030   0.00000   0.00018   0.00018   2.16258
    A4        1.96132  -0.00404   0.00000  -0.01642  -0.01641   1.94491
    A5        2.24104   0.00106   0.00000   0.00246   0.00246   2.24350
    A6        2.08082   0.00298   0.00000   0.01396   0.01396   2.09478
    A7        1.58932   0.00614   0.00000   0.01970   0.01971   1.60903
    A8        2.12932   0.00469   0.00000   0.01902   0.01903   2.14834
    A9        1.93602  -0.00420   0.00000  -0.01798  -0.01799   1.91804
   A10        2.21785  -0.00048   0.00000  -0.00104  -0.00104   2.21681
   A11        2.14697   0.00321   0.00000   0.01263   0.01263   2.15960
   A12        2.04559   0.00066   0.00000   0.00273   0.00273   2.04832
   A13        2.09062  -0.00388   0.00000  -0.01536  -0.01536   2.07526
   A14        2.13803   0.00220   0.00000   0.00931   0.00931   2.14734
   A15        2.11466  -0.00150   0.00000  -0.00707  -0.00707   2.10759
   A16        2.03050  -0.00069   0.00000  -0.00224  -0.00224   2.02826
   A17        2.05453   0.00168   0.00000   0.00605   0.00605   2.06058
   A18        2.04559   0.00066   0.00000   0.00273   0.00273   2.04832
   A19        2.09062  -0.00388   0.00000  -0.01536  -0.01536   2.07526
   A20        2.14697   0.00321   0.00000   0.01263   0.01263   2.15960
   A21        2.21785  -0.00048   0.00000  -0.00104  -0.00104   2.21681
   A22        2.12932   0.00469   0.00000   0.01902   0.01903   2.14834
   A23        1.93602  -0.00420   0.00000  -0.01798  -0.01799   1.91804
   A24        1.97260   0.00188   0.00000   0.01006   0.01005   1.98265
   A25        2.12969  -0.00155   0.00000  -0.00869  -0.00869   2.12100
   A26        2.18089  -0.00032   0.00000  -0.00137  -0.00136   2.17953
   A27        1.96551   0.00023   0.00000   0.00465   0.00464   1.97016
   A28        2.16240   0.00030   0.00000   0.00018   0.00018   2.16258
   A29        2.15528  -0.00053   0.00000  -0.00483  -0.00483   2.15045
   A30        1.96132  -0.00404   0.00000  -0.01642  -0.01641   1.94491
   A31        2.24104   0.00106   0.00000   0.00246   0.00246   2.24350
   A32        2.08082   0.00298   0.00000   0.01396   0.01396   2.09478
   A33        1.58932   0.00614   0.00000   0.01970   0.01971   1.60903
   A34        2.13803   0.00220   0.00000   0.00931   0.00931   2.14734
   A35        2.11466  -0.00150   0.00000  -0.00707  -0.00707   2.10759
   A36        2.03050  -0.00069   0.00000  -0.00224  -0.00224   2.02826
   A37        2.05453   0.00168   0.00000   0.00605   0.00605   2.06058
   A38        1.97260   0.00188   0.00000   0.01006   0.01005   1.98265
   A39        2.18089  -0.00032   0.00000  -0.00137  -0.00136   2.17953
   A40        2.12969  -0.00155   0.00000  -0.00869  -0.00869   2.12100
    D1       -0.00003   0.00000   0.00000   0.00006   0.00006   0.00003
    D2        3.14158   0.00000   0.00000   0.00002   0.00002  -3.14159
    D3        3.14157   0.00000   0.00000   0.00003   0.00003  -3.14158
    D4        0.00000  -0.00000   0.00000  -0.00001  -0.00001  -0.00000
    D5        0.00000  -0.00000   0.00000  -0.00001  -0.00001  -0.00000
    D6       -3.14158  -0.00000   0.00000  -0.00002  -0.00002   3.14158
    D7        3.14158   0.00000   0.00000   0.00002   0.00002  -3.14159
    D8        0.00000  -0.00000   0.00000  -0.00000  -0.00000  -0.00000
    D9        0.00004  -0.00000   0.00000  -0.00007  -0.00007  -0.00003
   D10       -3.14157  -0.00000   0.00000  -0.00003  -0.00003   3.14158
   D11        3.14157   0.00000   0.00000   0.00004   0.00004  -3.14157
   D12       -0.00004   0.00000   0.00000   0.00007   0.00007   0.00003
   D13       -0.00001   0.00000   0.00000   0.00001   0.00001   0.00000
   D14        3.14158   0.00000   0.00000   0.00002   0.00002  -3.14159
   D15       -3.14158  -0.00000   0.00000  -0.00002  -0.00002   3.14158
   D16        0.00001  -0.00000   0.00000  -0.00001  -0.00001  -0.00001
   D17        0.00003  -0.00000   0.00000  -0.00005  -0.00005  -0.00002
   D18       -3.14158  -0.00000   0.00000  -0.00003  -0.00003   3.14158
   D19       -3.14158  -0.00000   0.00000  -0.00002  -0.00002   3.14158
   D20        0.00000  -0.00000   0.00000  -0.00000  -0.00000  -0.00000
   D21        3.14159   0.00000   0.00000   0.00000   0.00000  -3.14159
   D22       -0.00000   0.00000   0.00000   0.00000   0.00000   0.00000
   D23        0.00000  -0.00000   0.00000  -0.00000  -0.00000  -0.00000
   D24       -3.14159  -0.00000   0.00000  -0.00000  -0.00000   3.14159
   D25       -3.14159  -0.00000   0.00000  -0.00000  -0.00000   3.14159
   D26       -0.00000   0.00000   0.00000   0.00000   0.00000   0.00000
   D27       -0.00000   0.00000   0.00000   0.00000   0.00000   0.00000
   D28        3.14159   0.00000   0.00000   0.00000   0.00000  -3.14159
   D29       -3.14159  -0.00000   0.00000  -0.00000  -0.00000   3.14159
   D30       -0.00000   0.00000   0.00000   0.00000   0.00000   0.00000
   D31        0.00000  -0.00000   0.00000  -0.00000  -0.00000  -0.00000
   D32        3.14159   0.00000   0.00000   0.00000   0.00000  -3.14159
   D33       -3.14159  -0.00000   0.00000  -0.00001  -0.00001   3.14159
   D34       -0.00000   0.00000   0.00000   0.00000   0.00000   0.00000
   D35        0.00000  -0.00000   0.00000  -0.00000  -0.00000  -0.00000
   D36       -3.14159  -0.00000   0.00000  -0.00000  -0.00000   3.14159
   D37       -3.14159  -0.00000   0.00000  -0.00000  -0.00000   3.14159
   D38       -0.00000   0.00000   0.00000   0.00000   0.00000   0.00000
   D39       -3.14159  -0.00000   0.00000  -0.00001  -0.00001   3.14159
   D40        0.00000  -0.00000   0.00000  -0.00000  -0.00000  -0.00000
   D41        0.00001  -0.00000   0.00000  -0.00001  -0.00001  -0.00001
   D42       -3.14159  -0.00000   0.00000  -0.00001  -0.00001   3.14159
   D43        3.14159   0.00000   0.00000   0.00001   0.00001  -3.14159
   D44       -0.00001   0.00000   0.00000   0.00002   0.00002   0.00001
   D45        0.00000  -0.00000   0.00000  -0.00000  -0.00000  -0.00000
   D46        3.14159   0.00000   0.00000   0.00000   0.00000  -3.14159
   D47       -3.14159  -0.00000   0.00000  -0.00001  -0.00001   3.14159
   D48        0.00000  -0.00000   0.00000  -0.00000  -0.00000  -0.00000
   D49       -0.00001   0.00000   0.00000   0.00002   0.00002   0.00001
   D50        3.14159   0.00000   0.00000   0.00000   0.00000  -3.14159
   D51        3.14159   0.00000   0.00000   0.00001   0.00001  -3.14159
   D52        0.00000  -0.00000   0.00000  -0.00000  -0.00000  -0.00000
   D53        0.00001  -0.00000   0.00000  -0.00002  -0.00002  -0.00001
   D54       -3.14159  -0.00000   0.00000  -0.00001  -0.00001   3.14159
   D55       -0.00000   0.00000   0.00000   0.00000   0.00000   0.00000
   D56       -3.14159   0.00000   0.00000  -0.00000  -0.00000  -3.14159
         Item               Value     Threshold  Converged?
 Maximum Force            0.017266     0.000450     NO 
 RMS     Force            0.005098     0.000300     NO 
 Maximum Displacement     0.198086     0.001800     NO 
 RMS     Displacement     0.049305     0.001200     NO 
 Predicted change in Energy=-3.837570D-03
 Lowest energy point so far.  Saving SCF results.
 GradGradGradGradGradGradGradGradGradGradGradGradGradGradGradGradGradGrad

 Leave Link  103 at Sun Jan 18 23:59:13 2026, MaxMem=  8053063680 cpu:               0.4 elap:               0.0
 (Enter /appl/Gaussian16/AVX_revB01/g16/l202.exe)
                          Input orientation:                          
 ---------------------------------------------------------------------
 Center     Atomic      Atomic             Coordinates (Angstroms)
 Number     Number       Type             X           Y           Z
 ---------------------------------------------------------------------
      1          6           0        5.064154    0.449433   -0.366524
      2          6           0        5.229213   -0.113061    0.872764
      3         16           0        3.709480   -0.525692    1.586916
      4          6           0        2.819759    0.066261    0.197780
      5          6           0        1.361418    0.027552    0.108546
      6          6           0        0.527055   -0.486802    1.124718
      7          7           0       -0.795540   -0.515094    1.029012
      8          6           0       -1.361418   -0.027552   -0.095299
      9          6           0       -2.819759   -0.066264   -0.184534
     10          6           0       -3.697623   -0.551579    0.763509
     11          6           0       -5.064154   -0.449434    0.379770
     12          6           0       -5.229214    0.113086   -0.859505
     13         16           0       -3.709479    0.525678   -1.573675
     14          6           0       -0.527055    0.486800   -1.111471
     15          7           0        0.795540    0.515093   -1.015765
     16          6           0        3.697624    0.551565   -0.750268
     17          1           0        5.892509    0.779701   -0.984267
     18          1           0        6.149860   -0.309147    1.407293
     19          1           0        0.951610   -0.887718    2.044415
     20          1           0       -3.346849   -0.964860    1.701257
     21          1           0       -5.892508   -0.779702    0.997514
     22          1           0       -6.149863    0.309191   -1.394025
     23          1           0       -0.951609    0.887713   -2.031170
     24          1           0        3.346851    0.964836   -1.688021
 ---------------------------------------------------------------------
                    Distance matrix (angstroms):
                    1          2          3          4          5
     1  C    0.000000
     2  C    1.370941   0.000000
     3  S    2.569423   1.729123   0.000000
     4  C    2.345755   2.508631   1.752629   0.000000
     5  C    3.756851   3.945078   2.829319   1.461581   0.000000
     6  C    4.866786   4.723712   3.216049   2.534084   1.411852
     7  N    6.100315   6.040173   4.539447   3.754904   2.407112
     8  C    6.448958   6.661898   5.365818   4.192486   2.731012
     9  C    7.902857   8.118252   6.780860   5.654015   4.192486
    10  C    8.890880   8.938268   7.452775   6.571000   5.134030
    11  C   10.195467  10.310654   8.856617   7.902857   6.448958
    12  C   10.310654  10.603330   9.289417   8.118252   6.661898
    13  S    8.856617   9.289417   8.132384   6.780860   5.365818
    14  C    5.640741   6.118140   5.123930   3.618308   2.294707
    15  N    4.318204   4.859895   4.043294   2.402416   1.349811
    16  C    1.423058   2.328460   2.573529   1.380204   2.543621
    17  H    1.084829   2.164613   3.616717   3.368682   4.721308
    18  H    2.213736   1.082479   2.456545   3.562783   4.972855
    19  H    4.951123   4.502305   2.818904   2.794659   2.180195
    20  H    8.776156   8.657991   7.070907   6.430452   5.068470
    21  H   11.109447  11.142381   9.623414   8.789700   7.352644
    22  H   11.261865  11.610340  10.333909   9.113011   7.665271
    23  H    6.257199   6.901953   6.067455   4.457154   3.266245
    24  H    2.227359   3.356005   3.616405   2.154416   2.836917
                    6          7          8          9         10
     6  C    0.000000
     7  N    1.326355   0.000000
     8  C    2.294707   1.349811   0.000000
     9  C    3.618308   2.402416   1.461581   0.000000
    10  C    4.240586   2.914431   2.543621   1.380204   0.000000
    11  C    5.640741   4.318204   3.756851   2.345755   1.423058
    12  C    6.118140   4.859895   3.945078   2.508631   2.328460
    13  S    5.123930   4.043294   2.829319   1.752629   2.573529
    14  C    2.656988   2.378559   1.411852   2.534084   3.827047
    15  N    2.378559   2.788178   2.407112   3.754904   4.948952
    16  C    3.827047   4.948952   5.134030   6.571000   7.628770
    17  H    5.902537   7.103505   7.352644   8.789700   9.838580
    18  H    5.632704   6.958742   7.665271   9.113011   9.871482
    19  H    1.089414   2.054854   3.266245   4.457154   4.834157
    20  H    3.945640   2.676450   2.836917   2.154416   1.083151
    21  H    6.427501   5.103929   4.721308   3.368682   2.219081
    22  H    7.180452   5.934587   4.972855   3.562783   3.377774
    23  H    3.746380   3.370005   2.180195   2.794659   4.174013
    24  H    4.239104   5.170286   5.068470   6.430452   7.611447
                   11         12         13         14         15
    11  C    0.000000
    12  C    1.370941   0.000000
    13  S    2.569423   1.729123   0.000000
    14  C    4.866786   4.723712   3.216049   0.000000
    15  N    6.100315   6.040173   4.539447   1.326355   0.000000
    16  C    8.890880   8.938268   7.452775   4.240586   2.914431
    17  H   11.109447  11.142381   9.623414   6.427501   5.103929
[...]
      6          6           0        0.672812    1.145403   -0.000001
      7          7           0       -0.650578    1.237804   -0.000001
      8          6           0       -1.355524    0.087438   -0.000002
      9          6           0       -2.811115    0.200988   -0.000001
     10          6           0       -3.548114    1.365075    0.000002
     11          6           0       -4.952289    1.144608   -0.000003
     12          6           0       -5.281347   -0.184925   -0.000011
     13         16           0       -3.873556   -1.194541    0.000004
     14          6           0       -0.672812   -1.145403   -0.000001
     15          7           0        0.650578   -1.237804   -0.000002
     16          6           0        3.548114   -1.365075    0.000016
     17          1           0        5.688857   -1.940641   -0.000005
     18          1           0        6.265477    0.634148   -0.000063
     19          1           0        1.220186    2.086972    0.000002
     20          1           0       -3.073573    2.338634    0.000005
     21          1           0       -5.688857    1.940641   -0.000004
     22          1           0       -6.265477   -0.634148   -0.000018
     23          1           0       -1.220186   -2.086972   -0.000000
     24          1           0        3.073573   -2.338634    0.000028
 ---------------------------------------------------------------------
 Rotational constants (GHZ):           1.8594698           0.1717408           0.1572200
 Leave Link  202 at Sun Jan 18 23:59:54 2026, MaxMem=  8053063680 cpu:               0.5 elap:               0.2
 (Enter /appl/Gaussian16/AVX_revB01/g16/l601.exe)
 Copying SCF densities to generalized density rwf, IOpCl= 0 IROHF=0.

 **********************************************************************

            Population analysis using the SCF Density.

 **********************************************************************

 Orbital symmetries:
       Occupied  (A) (A) (A) (A) (A) (A) (A) (A) (A) (A) (A) (A)
                 (A) (A) (A) (A) (A) (A) (A) (A) (A) (A) (A) (A)
                 (A) (A) (A) (A) (A) (A) (A) (A) (A) (A) (A) (A)
                 (A) (A) (A) (A) (A) (A) (A) (A) (A) (A) (A) (A)
                 (A) (A) (A) (A) (A) (A) (A) (A) (A) (A) (A) (A)
                 (A) (A) (A)
       Virtual   (A) (A) (A) (A) (A) (A) (A) (A) (A) (A) (A) (A)
                 (A) (A) (A) (A) (A) (A) (A) (A) (A) (A) (A) (A)
                 (A) (A) (A) (A) (A) (A) (A) (A) (A) (A) (A) (A)
                 (A) (A) (A) (A) (A) (A) (A) (A) (A) (A) (A) (A)
                 (A) (A) (A) (A) (A) (A) (A) (A) (A) (A) (A) (A)
                 (A) (A) (A) (A) (A) (A) (A) (A) (A) (A) (A) (A)
                 (A) (A) (A) (A) (A) (A) (A) (A) (A) (A) (A) (A)
                 (A) (A) (A) (A) (A) (A) (A) (A) (A) (A) (A) (A)
                 (A) (A) (A) (A) (A) (A) (A) (A) (A) (A) (A) (A)
                 (A) (A) (A) (A) (A) (A) (A) (A) (A) (A) (A) (A)
                 (A) (A) (A) (A) (A) (A) (A) (A) (A) (A) (A) (A)
                 (A) (A) (A) (A) (A) (A) (A) (A) (A) (A) (A) (A)
                 (A) (A) (A) (A) (A) (A) (A) (A) (A) (A) (A) (A)
                 (A) (A) (A) (A) (A) (A) (A) (A) (A) (A) (A) (A)
                 (A) (A) (A) (A) (A) (A) (A) (A) (A) (A) (A) (A)
                 (A) (A) (A) (A) (A) (A) (A) (A) (A) (A) (A) (A)
                 (A) (A) (A) (A) (A) (A) (A) (A) (A)
 The electronic state is 1-A.
 Alpha  occ. eigenvalues --  -88.91407 -88.91407 -14.34892 -14.34892 -10.24643
 Alpha  occ. eigenvalues --  -10.24643 -10.23554 -10.23554 -10.22582 -10.22582
 Alpha  occ. eigenvalues --  -10.22279 -10.22279 -10.19917 -10.19917 -10.19640
 Alpha  occ. eigenvalues --  -10.19640  -7.97524  -7.97524  -5.93930  -5.93930
 Alpha  occ. eigenvalues --   -5.93563  -5.93563  -5.93224  -5.93224  -0.98526
 Alpha  occ. eigenvalues --   -0.91499  -0.88327  -0.88315  -0.80231  -0.75273
 Alpha  occ. eigenvalues --   -0.74049  -0.73876  -0.70987  -0.66344  -0.65681
 Alpha  occ. eigenvalues --   -0.57616  -0.56650  -0.56413  -0.54877  -0.52461
 Alpha  occ. eigenvalues --   -0.51822  -0.51241  -0.46815  -0.46572  -0.43733
 Alpha  occ. eigenvalues --   -0.41892  -0.40355  -0.40020  -0.39838  -0.39363
 Alpha  occ. eigenvalues --   -0.38959  -0.38694  -0.37685  -0.34891  -0.34613
 Alpha  occ. eigenvalues --   -0.33386  -0.30696  -0.30029  -0.25739  -0.25686
 Alpha  occ. eigenvalues --   -0.25103  -0.24853  -0.20774
 Alpha virt. eigenvalues --   -0.07167  -0.04043  -0.01794   0.02317   0.02629
 Alpha virt. eigenvalues --    0.02863   0.06102   0.08215   0.08868   0.09404
 Alpha virt. eigenvalues --    0.10852   0.10852   0.14661   0.14940   0.16241
 Alpha virt. eigenvalues --    0.16470   0.17082   0.17995   0.18025   0.21426
 Alpha virt. eigenvalues --    0.23180   0.23183   0.25246   0.26867   0.29289
 Alpha virt. eigenvalues --    0.30039   0.31426   0.32768   0.34356   0.35100
 Alpha virt. eigenvalues --    0.35900   0.35962   0.36744   0.39811   0.40894
 Alpha virt. eigenvalues --    0.41897   0.42639   0.43241   0.44836   0.47596
 Alpha virt. eigenvalues --    0.49510   0.51095   0.51222   0.51839   0.54106
 Alpha virt. eigenvalues --    0.54159   0.55142   0.55217   0.55866   0.58072
 Alpha virt. eigenvalues --    0.58717   0.59134   0.59216   0.60502   0.60617
 Alpha virt. eigenvalues --    0.60791   0.61940   0.63553   0.64669   0.65726
 Alpha virt. eigenvalues --    0.66223   0.67166   0.69221   0.70780   0.74432
 Alpha virt. eigenvalues --    0.76506   0.78989   0.79349   0.79522   0.79800
 Alpha virt. eigenvalues --    0.80768   0.81854   0.82632   0.82756   0.83371
 Alpha virt. eigenvalues --    0.84453   0.84585   0.86472   0.86790   0.87194
 Alpha virt. eigenvalues --    0.87377   0.87819   0.89945   0.91156   0.92935
 Alpha virt. eigenvalues --    0.93645   0.93852   0.96120   0.96627   0.99328
 Alpha virt. eigenvalues --    1.00452   1.00647   1.02627   1.03361   1.03693
 Alpha virt. eigenvalues --    1.07320   1.08717   1.10899   1.11175   1.12863
 Alpha virt. eigenvalues --    1.16327   1.19200   1.20412   1.23413   1.24363
 Alpha virt. eigenvalues --    1.27126   1.28755   1.30802   1.31086   1.32235
 Alpha virt. eigenvalues --    1.37262   1.38092   1.38628   1.39237   1.44868
 Alpha virt. eigenvalues --    1.44939   1.45476   1.47295   1.50857   1.50908
 Alpha virt. eigenvalues --    1.52808   1.53392   1.55951   1.60712   1.60770
 Alpha virt. eigenvalues --    1.65299   1.72561   1.73430   1.76934   1.77193
 Alpha virt. eigenvalues --    1.77626   1.82255   1.82488   1.87514   1.88161
 Alpha virt. eigenvalues --    1.88536   1.90538   1.92194   1.93826   1.94374
 Alpha virt. eigenvalues --    1.95207   1.98298   2.05721   2.11070   2.11349
 Alpha virt. eigenvalues --    2.13701   2.16175   2.17624   2.19290   2.19871
 Alpha virt. eigenvalues --    2.21180   2.22353   2.23421   2.24369   2.25392
 Alpha virt. eigenvalues --    2.29061   2.29864   2.31076   2.31281   2.32808
 Alpha virt. eigenvalues --    2.35758   2.38989   2.43281   2.45571   2.48382
 Alpha virt. eigenvalues --    2.50157   2.54207   2.54450   2.55987   2.63060
 Alpha virt. eigenvalues --    2.64450   2.67012   2.69505   2.71550   2.78294
 Alpha virt. eigenvalues --    2.79735   2.84066   2.87388   2.88615   2.92459
 Alpha virt. eigenvalues --    3.03395   3.07619   3.07930   3.22545   3.44138
 Alpha virt. eigenvalues --    3.92415   3.94547   4.03042   4.06902   4.10809
 Alpha virt. eigenvalues --    4.10960   4.11634   4.13686   4.20694   4.28034
 Alpha virt. eigenvalues --    4.30710   4.35681   4.40966   4.42617   4.55496
 Alpha virt. eigenvalues --    4.62342
          Condensed to atoms (all electrons):
               1          2          3          4          5          6
     1  C    4.842647   0.574420  -0.081930  -0.027763   0.005851  -0.000295
     2  C    0.574420   5.234094   0.318228  -0.055107   0.003503   0.000047
     3  S   -0.081930   0.318228  15.343959   0.325473  -0.060178  -0.000296
     4  C   -0.027763  -0.055107   0.325473   5.329047   0.323578  -0.068190
     5  C    0.005851   0.003503  -0.060178   0.323578   4.732429   0.403911
     6  C   -0.000295   0.000047  -0.000296  -0.068190   0.403911   5.020463
     7  N    0.000001  -0.000001   0.000255   0.005248  -0.017491   0.444090
     8  C    0.000000   0.000000   0.000026   0.001157  -0.027798  -0.062179
     9  C    0.000000   0.000000   0.000000   0.000011   0.001157   0.007389
    10  C   -0.000000  -0.000000  -0.000000  -0.000001  -0.000002   0.000288
    11  C    0.000000  -0.000000  -0.000000   0.000000   0.000000  -0.000003
    12  C   -0.000000  -0.000000   0.000000   0.000000   0.000000   0.000002
    13  S   -0.000000   0.000000   0.000000   0.000000   0.000026  -0.000171
    14  C   -0.000003   0.000002  -0.000171   0.007389  -0.062179  -0.039127
    15  N    0.000546  -0.000027   0.003134  -0.093801   0.457773  -0.078723
    16  C    0.489206  -0.048382  -0.095947   0.502255  -0.010025   0.009539
    17  H    0.362293  -0.049516   0.006789   0.004843  -0.000123   0.000000
    18  H   -0.022086   0.357367  -0.035216   0.001920  -0.000086   0.000004
    19  H    0.000002   0.000032   0.007518  -0.001966  -0.059472   0.366858
    20  H   -0.000000  -0.000000  -0.000000  -0.000000   0.000012   0.000044
    21  H   -0.000000   0.000000   0.000000  -0.000000  -0.000000  -0.000000
    22  H    0.000000   0.000000   0.000000  -0.000000  -0.000000  -0.000000
    23  H   -0.000000   0.000000   0.000006  -0.000092   0.005277   0.000187
    24  H   -0.044743   0.006153   0.006893  -0.047596  -0.009673   0.000325
               7          8          9         10         11         12
     1  C    0.000001   0.000000   0.000000  -0.000000   0.000000  -0.000000
     2  C   -0.000001   0.000000   0.000000  -0.000000  -0.000000  -0.000000
     3  S    0.000255   0.000026   0.000000  -0.000000  -0.000000   0.000000
     4  C    0.005248   0.001157   0.000011  -0.000001   0.000000   0.000000
     5  C   -0.017491  -0.027798   0.001157  -0.000002   0.000000   0.000000
     6  C    0.444090  -0.062179   0.007389   0.000288  -0.000003   0.000002
     7  N    6.811955   0.457773  -0.093801  -0.004375   0.000546  -0.000027
     8  C    0.457773   4.732429   0.323578  -0.010025   0.005851   0.003503
     9  C   -0.093801   0.323578   5.329047   0.502255  -0.027763  -0.055107
    10  C   -0.004375  -0.010025   0.502255   4.935096   0.489206  -0.048382
    11  C    0.000546   0.005851  -0.027763   0.489206   4.842647   0.574420
    12  C   -0.000027   0.003503  -0.055107  -0.048382   0.574420   5.234094
    13  S    0.003134  -0.060178   0.325473  -0.095947  -0.081930   0.318228
    14  C   -0.078723   0.403911  -0.068190   0.009539  -0.000295   0.000047
    15  N   -0.029037  -0.017491   0.005248  -0.000123   0.000001  -0.000001
    16  C   -0.000123  -0.000002  -0.000001   0.000000  -0.000000  -0.000000
    17  H   -0.000000  -0.000000  -0.000000  -0.000000  -0.000000   0.000000
    18  H    0.000000  -0.000000  -0.000000   0.000000   0.000000   0.000000
    19  H   -0.050305   0.005277  -0.000092  -0.000033  -0.000000   0.000000
    20  H    0.012129  -0.009673  -0.047596   0.365749  -0.044743   0.006153
    21  H   -0.000002  -0.000123   0.004843  -0.036153   0.362293  -0.049516
    22  H    0.000001  -0.000086   0.001920   0.004394  -0.022086   0.357367
    23  H    0.003949  -0.059472  -0.001966  -0.000196   0.000002   0.000032
    24  H    0.000001   0.000012  -0.000000   0.000000  -0.000000  -0.000000
              13         14         15         16         17         18
     1  C   -0.000000  -0.000003   0.000546   0.489206   0.362293  -0.022086
     2  C    0.000000   0.000002  -0.000027  -0.048382  -0.049516   0.357367
     3  S    0.000000  -0.000171   0.003134  -0.095947   0.006789  -0.035216
     4  C    0.000000   0.007389  -0.093801   0.502255   0.004843   0.001920
     5  C    0.000026  -0.062179   0.457773  -0.010025  -0.000123  -0.000086
     6  C   -0.000171  -0.039127  -0.078723   0.009539   0.000000   0.000004
     7  N    0.003134  -0.078723  -0.029037  -0.000123  -0.000000   0.000000
     8  C   -0.060178   0.403911  -0.017491  -0.000002  -0.000000  -0.000000
     9  C    0.325473  -0.068190   0.005248  -0.000001  -0.000000  -0.000000
    10  C   -0.095947   0.009539  -0.000123   0.000000  -0.000000   0.000000
    11  C   -0.081930  -0.000295   0.000001  -0.000000  -0.000000   0.000000
    12  C    0.318228   0.000047  -0.000001  -0.000000   0.000000   0.000000
    13  S   15.343959  -0.000296   0.000255  -0.000000   0.000000   0.000000
    14  C   -0.000296   5.020463   0.444090   0.000288  -0.000000  -0.000000
    15  N    0.000255   0.444090   6.811955  -0.004375  -0.000002   0.000001
    16  C   -0.000000   0.000288  -0.004375   4.935096  -0.036153   0.004394
    17  H    0.000000  -0.000000  -0.000002  -0.036153   0.570147  -0.003188
    18  H    0.000000  -0.000000   0.000001   0.004394  -0.003188   0.519885
    19  H    0.000006   0.000187   0.003949  -0.000196   0.000000   0.000001
    20  H    0.006893   0.000325   0.000001   0.000000   0.000000   0.000000
    21  H    0.006789   0.000000  -0.000000  -0.000000  -0.000000   0.000000
    22  H   -0.035216   0.000004   0.000000   0.000000   0.000000  -0.000000
    23  H    0.007518   0.366858  -0.050305  -0.000033   0.000000   0.000000
    24  H   -0.000000   0.000044   0.012129   0.365749  -0.002247  -0.000093
              19         20         21         22         23         24
     1  C    0.000002  -0.000000  -0.000000   0.000000  -0.000000  -0.044743
     2  C    0.000032  -0.000000   0.000000   0.000000   0.000000   0.006153
     3  S    0.007518  -0.000000   0.000000   0.000000   0.000006   0.006893
     4  C   -0.001966  -0.000000  -0.000000  -0.000000  -0.000092  -0.047596
     5  C   -0.059472   0.000012  -0.000000  -0.000000   0.005277  -0.009673
     6  C    0.366858   0.000044  -0.000000  -0.000000   0.000187   0.000325
     7  N   -0.050305   0.012129  -0.000002   0.000001   0.003949   0.000001
     8  C    0.005277  -0.009673  -0.000123  -0.000086  -0.059472   0.000012
     9  C   -0.000092  -0.047596   0.004843   0.001920  -0.001966  -0.000000
    10  C   -0.000033   0.365749  -0.036153   0.004394  -0.000196   0.000000
    11  C   -0.000000  -0.044743   0.362293  -0.022086   0.000002  -0.000000
    12  C    0.000000   0.006153  -0.049516   0.357367   0.000032  -0.000000
    13  S    0.000006   0.006893   0.006789  -0.035216   0.007518  -0.000000
    14  C    0.000187   0.000325   0.000000   0.000004   0.366858   0.000044
    15  N    0.003949   0.000001  -0.000000   0.000000  -0.050305   0.012129
    16  C   -0.000196   0.000000  -0.000000   0.000000  -0.000033   0.365749
    17  H    0.000000   0.000000  -0.000000   0.000000   0.000000  -0.002247
    18  H    0.000001   0.000000   0.000000  -0.000000   0.000000  -0.000093
    19  H    0.567840  -0.000039   0.000000   0.000000   0.000038  -0.000018
    20  H   -0.000039   0.546731  -0.002247  -0.000093  -0.000018   0.000000
    21  H    0.000000  -0.002247   0.570147  -0.003188   0.000000   0.000000
    22  H    0.000000  -0.000093  -0.003188   0.519885   0.000001   0.000000
    23  H    0.000038  -0.000018   0.000000   0.000001   0.567840  -0.000039
    24  H   -0.000018   0.000000   0.000000   0.000000  -0.000039   0.546731
 Mulliken charges:
               1
     1  C   -0.098146
     2  C   -0.340813
     3  S    0.261457
     4  C   -0.206406
     5  C    0.313510
     6  C   -0.004162
     7  N   -0.465193
     8  C    0.313510
     9  C   -0.206406
    10  C   -0.111291
    11  C   -0.098146
    12  C   -0.340813
    13  S    0.261457
    14  C   -0.004162
    15  N   -0.465193
    16  C   -0.111291
    17  H    0.147157
    18  H    0.177099
    19  H    0.160416
    20  H    0.166371
    21  H    0.147157
    22  H    0.177099
    23  H    0.160416
    24  H    0.166371
 Sum of Mulliken charges =  -0.00000
 Mulliken charges with hydrogens summed into heavy atoms:
               1
     1  C    0.049011
     2  C   -0.163713
     3  S    0.261457
     4  C   -0.206406
     5  C    0.313510
     6  C    0.156254
     7  N   -0.465193
     8  C    0.313510
     9  C   -0.206406
    10  C    0.055080
    11  C    0.049011
    12  C   -0.163713
    13  S    0.261457
    14  C    0.156254
    15  N   -0.465193
    16  C    0.055080
 Electronic spatial extent (au):  <R**2>=           6298.5796
 Charge=             -0.0000 electrons
 Dipole moment (field-independent basis, Debye):
    X=              0.0000    Y=              0.0000    Z=              0.0000  Tot=              0.0000
 Quadrupole moment (field-independent basis, Debye-Ang):
   XX=            -78.8363   YY=           -101.1554   ZZ=           -109.6465
   XY=             -0.7193   XZ=             -0.0001   YZ=             -0.0000
 Traceless Quadrupole moment (field-independent basis, Debye-Ang):
   XX=             17.7098   YY=             -4.6094   ZZ=            -13.1004
   XY=             -0.7193   XZ=             -0.0001   YZ=             -0.0000
 Octapole moment (field-independent basis, Debye-Ang**2):
  XXX=              0.0000  YYY=              0.0000  ZZZ=              0.0001  XYY=             -0.0000
  XXY=             -0.0000  XXZ=             -0.0014  XZZ=              0.0000  YZZ=              0.0000
  YYZ=              0.0003  XYZ=             -0.0002
 Hexadecapole moment (field-independent basis, Debye-Ang**3):
 XXXX=          -6368.9060 YYYY=           -794.6561 ZZZZ=           -118.3826 XXXY=            -16.3004
 XXXZ=             -0.0060 YYYX=            -26.4915 YYYZ=             -0.0001 ZZZX=              0.0002
 ZZZY=              0.0000 XXYY=          -1307.1370 XXZZ=          -1422.0385 YYZZ=           -166.7435
 XXYZ=             -0.0009 YYXZ=              0.0005 ZZXY=              9.1899
 N-N= 1.150142890313D+03 E-N=-5.517628990495D+03  KE= 1.359869400768D+03
 No NMR shielding tensors so no spin-rotation constants.
 Leave Link  601 at Sun Jan 18 23:59:54 2026, MaxMem=  8053063680 cpu:               1.9 elap:               0.2
 (Enter /appl/Gaussian16/AVX_revB01/g16/l9999.exe)
 1\1\GINC-CNODE10\FOpt\RB3LYP\6-31G(d)\C12H8N2S2\JUNHKIM\18-Jan-2026\0\
 \#P b3lyp/6-31g* opt SCF=XQC\\Gaussian input prepared by ASE\\0,1\C,5.
 0491912496,0.4487980123,-0.3669250694\C,5.2121191212,-0.1133471994,0.8
 713742112\S,3.6927783346,-0.529156416,1.5924191531\C,2.8110280929,0.06
 57559718,0.1978302568\C,1.3543180848,0.0277170086,0.1073420197\C,0.526
 2614337,-0.4869364074,1.1249106849\N,-0.7968156794,-0.5169600212,1.032
 902699\C,-1.3543178877,-0.0277189944,-0.0940953896\C,-2.8110276612,-0.
 0657622437,-0.1845856039\C,-3.6844532461,-0.5510948865,0.7640170505\C,
 -5.0491910934,-0.4487992699,0.3801720337\C,-5.2121210254,0.1133835422,
 -0.8581099048\S,-3.692776931,0.5291324141,-1.5791826785\C,-0.526261123
 1,0.4869323514,-1.1116650097\N,0.796815926,0.5169571264,-1.0196564882\
 C,3.684454559,0.5510725198,-0.7507798214\H,5.8770028983,0.7791186706,-
 0.984839727\H,6.1324264939,-0.3091363003,1.4052416082\H,0.9532139061,-
 0.8871815565,2.0434341811\H,-3.3336183347,-0.964323316,1.7016540364\H,
 -5.8770029518,-0.7791160707,0.9980884725\H,-6.1324301415,0.3092045366,
 -1.3919625987\H,-0.9532134097,0.8871741042,-2.0301900723\H,3.333620385
 ,0.9642874241,-1.6884230438\\Version=ES64L-G16RevB.01\State=1-A\HF=-13
 67.9506251\RMSD=9.703e-09\RMSF=1.301e-04\Dipole=0.0000001,-0.0000018,-
 0.0000008\Quadrupole=12.9903223,-8.622022,-4.3683003,0.3967001,1.83903
 15,-2.3766182\PG=C01 [X(C12H8N2S2)]\\@


 TO DRY ONE'S EYES AND LAUGH AT A FALL
 AND BAFFLED, GET UP AND BEGIN AGAIN.
           R. BROWNING
 Job cpu time:       0 days  0 hours 13 minutes 20.3 seconds.
 Elapsed time:       0 days  0 hours  0 minutes 52.1 seconds.
 File lengths (MBytes):  RWF=     62 Int=      0 D2E=      0 Chk=      7 Scr=      2
 Normal termination of Gaussian 16 at Sun Jan 18 23:59:54 2026.
