
                                 *****************
                                 * O   R   C   A *
                                 *****************

           --- An Ab Initio, DFT and Semiempirical electronic structure package ---

                  #######################################################
                  #                        -***-                        #
                  #          Department of theory and spectroscopy      #
                  #               Directorship: Frank Neese             #
                  #        Max Planck Institute fuer Kohlenforschung    #
                  #                Kaiser Wilhelm Platz 1               #
                  #                 D-45470 Muelheim/Ruhr               #
                  #                      Germany                        #
                  #                                                     #
                  #                  All rights reserved                #
                  #                        -***-                        #
                  #######################################################


                         Program Version 4.2.1 -  RELEASE  -


 With contributions from (in alphabetic order):
   Daniel Aravena         : Magnetic Suceptibility
   Michael Atanasov       : Ab Initio Ligand Field Theory (pilot matlab implementation)
   Alexander A. Auer      : GIAO ZORA, VPT2
   Ute Becker             : Parallelization
   Giovanni Bistoni       : ED, misc. LED, open-shell LED, HFLD
   Martin Brehm           : Molecular dynamics
   Dmytro Bykov           : SCF Hessian
   Vijay G. Chilkuri      : MRCI spin determinant printing, contributions to CSF-ICE
   Dipayan Datta          : RHF DLPNO-CCSD density
   Achintya Kumar Dutta   : EOM-CC, STEOM-CC
   Dmitry Ganyushin       : Spin-Orbit,Spin-Spin,Magnetic field MRCI
   Miquel Garcia          : C-PCM Hessian, Gaussian charge scheme
   Yang Guo               : DLPNO-NEVPT2, CIM, IAO-localization
   Andreas Hansen         : Spin unrestricted coupled pair/coupled cluster methods
   Benjamin Helmich-Paris : CASSCF linear response (MC-RPA)
   Lee Huntington         : MR-EOM, pCC
   Robert Izsak           : Overlap fitted RIJCOSX, COSX-SCS-MP3, EOM
   Christian Kollmar      : KDIIS, OOCD, Brueckner-CCSD(T), CCSD density
   Simone Kossmann        : Meta GGA functionals, TD-DFT gradient, OOMP2, MP2 Hessian
   Martin Krupicka        : AUTO-CI
   Lucas Lang             : DCDCAS
   Dagmar Lenk            : GEPOL surface, SMD
   Dimitrios Liakos       : Extrapolation schemes; Compound Job, initial MDCI parallelization
   Dimitrios Manganas     : Further ROCIS development; embedding schemes
   Dimitrios Pantazis     : SARC Basis sets
   Taras Petrenko         : DFT Hessian,TD-DFT gradient, ASA, ECA, R-Raman, ABS, FL, XAS/XES, NRVS
   Peter Pinski           : DLPNO-MP2, DLPNO-MP2 Gradient
   Christoph Reimann      : Effective Core Potentials
   Marius Retegan         : Local ZFS, SOC
   Christoph Riplinger    : Optimizer, TS searches, QM/MM, DLPNO-CCSD(T), (RO)-DLPNO pert. Triples
   Tobias Risthaus        : Range-separated hybrids, TD-DFT gradient, RPA, STAB
   Michael Roemelt        : Original ROCIS implementation
   Masaaki Saitow         : Open-shell DLPNO-CCSD energy and density
   Barbara Sandhoefer     : DKH picture change effects
   Avijit Sen             : IP-ROCIS
   Kantharuban Sivalingam : CASSCF convergence, NEVPT2, FIC-MRCI
   Bernardo de Souza      : ESD, SOC TD-DFT
   Georgi Stoychev        : AutoAux, RI-MP2 NMR
   Willem Van den Heuvel  : Paramagnetic NMR
   Boris Wezisla          : Elementary symmetry handling
   Frank Wennmohs         : Technical directorship


 We gratefully acknowledge several colleagues who have allowed us to
 interface, adapt or use parts of their codes:
   Stefan Grimme, W. Hujo, H. Kruse,             : VdW corrections, initial TS optimization,
                  C. Bannwarth                     DFT functionals, gCP, sTDA/sTD-DF
   Ed Valeev, F. Pavosevic, A. Kumar             : LibInt (2-el integral package), F12 methods
   Garnet Chan, S. Sharma, J. Yang, R. Olivares  : DMRG
   Ulf Ekstrom                                   : XCFun DFT Library
   Mihaly Kallay                                 : mrcc  (arbitrary order and MRCC methods)
   Andreas Klamt, Michael Diedenhofen            : otool_cosmo (COSMO solvation model)
   Jiri Pittner, Ondrej Demel                    : Mk-CCSD
   Frank Weinhold                                : gennbo (NPA and NBO analysis)
   Christopher J. Cramer and Donald G. Truhlar   : smd solvation model
   Lars Goerigk                                  : TD-DFT with DH, B97 family of functionals
   V. Asgeirsson, H. Jonsson                     : NEB implementation
   FAccTs GmbH                                   : IRC, NEB, NEB-TS, Multilevel, MM, QM/MM, CI optimization
   S Lehtola, MJT Oliveira, MAL Marques          : LibXC Library


 Your calculation uses the libint2 library for the computation of 2-el integrals
 For citations please refer to: http://libint.valeyev.net

 Your ORCA version has been built with support for libXC version: 4.2.3
 For citations please refer to: https://tddft.org/programs/libxc/

 This ORCA versions uses:
   CBLAS   interface :  Fast vector & matrix operations
   LAPACKE interface :  Fast linear algebra routines
   SCALAPACK package :  Parallel linear algebra routines


Your calculation utilizes the semiempirical GFN2-xTB method
Please cite in your paper:
C. Bannwarth, Ehlert S., S. Grimme,  J. Chem. Theory Comput., 15, (2019), 1652.
   

----- Orbital basis set information -----
Your calculation utilizes the basis: def2-SVP
   F. Weigend and R. Ahlrichs, Phys. Chem. Chem. Phys. 7, 3297 (2005).

================================================================================
                                        WARNINGS
                       Please study these warnings very carefully!
================================================================================


WARNING: Geometry Optimization
  ===> : Switching off AutoStart
         For restart on a previous wavefunction, please use MOREAD

WARNING: Found dipole moment calculation with XTB calculation
  ===> : Switching off dipole moment calculation


WARNING: otool_xtb not available.
         Trying xtb instead   ... done.
  ===> : Now using xtb as program name.


INFO   : the flag for use of LIBINT has been found!

================================================================================
                                       INPUT FILE
================================================================================
NAME = pre_opt.inp
|  1> ! XTB2 Opt
|  2> * xyz 0 1
|  3> C      5.072942    0.442639   -0.350752
|  4> C      5.268525   -0.124146    0.901353
|  5> S      3.763533   -0.503822    1.545890
|  6> C      2.849796    0.047881    0.241223
|  7> C      1.377868    0.018941    0.129207
|  8> C      0.571886   -0.497833    1.153992
|  9> N     -0.778292   -0.503230    1.005367
| 10> C     -1.377869   -0.018919   -0.115949
| 11> C     -2.849797   -0.047868   -0.227970
| 12> C     -3.726036   -0.539895    0.734851
| 13> C     -5.072942   -0.442641    0.363999
| 14> C     -5.268525    0.124094   -0.888132
| 15> S     -3.763532    0.503774   -1.532665
| 16> C     -0.571887    0.497853   -1.140733
| 17> N      0.778291    0.503258   -0.992106
| 18> C      3.726034    0.539922   -0.721593
| 19> H      5.885695    0.777884   -0.981116
| 20> H      6.225191   -0.291291    1.377322
| 21> H      1.003731   -0.893533    2.063250
| 22> H     -3.406336   -0.958414    1.680313
| 23> H     -5.885686   -0.777872    0.994382
| 24> H     -6.225185    0.291195   -1.364129
| 25> H     -1.003729    0.893555   -2.049992
| 26> H      3.406325    0.958469   -1.667041
| 27> *
| 28> 
| 29>                          ****END OF INPUT****
================================================================================

                       *****************************
                       * Geometry Optimization Run *
                       *****************************

Geometry optimization settings:
Update method            Update   .... BFGS
Choice of coordinates    CoordSys .... Z-matrix Internals
Initial Hessian          InHess   .... Almoef's Model

Convergence Tolerances:
Energy Change            TolE     ....  5.0000e-06 Eh
Max. Gradient            TolMAXG  ....  3.0000e-04 Eh/bohr
RMS Gradient             TolRMSG  ....  1.0000e-04 Eh/bohr
Max. Displacement        TolMAXD  ....  4.0000e-03 bohr
RMS Displacement         TolRMSD  ....  2.0000e-03 bohr
Strict Convergence                ....  False
------------------------------------------------------------------------------
                        ORCA OPTIMIZATION COORDINATE SETUP
------------------------------------------------------------------------------

The optimization will be done in new redundant internal coordinates
Making redundant internal coordinates   ...  (new redundants) done
Evaluating the initial hessian          ...  (Almloef) done
Evaluating the coordinates              ...  done
Calculating the B-matrix                .... done
Calculating the G-matrix                .... done
Diagonalizing the G-matrix              .... done
Small eigenvalue found = 6.333e-03
Small eigenvalue found = 2.223e-02
Small eigenvalue found = 2.746e-02
The first mode is                       ....   56
The number of degrees of freedom        ....   66

    -----------------------------------------------------------------
                    Redundant Internal Coordinates


    -----------------------------------------------------------------
         Definition                    Initial Value    Approx d2E/dq
    -----------------------------------------------------------------
      1. B(C   1,C   0)                  1.3883         0.628804   
      2. B(S   2,C   1)                  1.6806         0.579153   
      3. B(C   3,S   2)                  1.6857         0.568592   
      4. B(C   4,C   3)                  1.4765         0.454763   
      5. B(C   5,C   4)                  1.4024         0.596879   
      6. B(N   6,C   5)                  1.3583         0.628608   
      7. B(C   7,N   6)                  1.3607         0.623280   
      8. B(C   8,C   7)                  1.4765         0.454762   
      9. B(C   9,C   8)                  1.3917         0.620840   
     10. B(C  10,C   9)                  1.4004         0.601356   
     11. B(C  11,C  10)                  1.3883         0.628797   
     12. B(S  12,C  11)                  1.6806         0.579153   
     13. B(S  12,C   8)                  1.6857         0.568591   
     14. B(C  13,C   7)                  1.4024         0.596882   
     15. B(N  14,C   4)                  1.3607         0.623281   
     16. B(N  14,C  13)                  1.3583         0.628608   
     17. B(C  15,C   3)                  1.3917         0.620839   
     18. B(C  15,C   0)                  1.4004         0.601354   
     19. B(H  16,C   0)                  1.0818         0.371097   
     20. B(H  17,C   1)                  1.0815         0.371489   
     21. B(H  18,C   5)                  1.0816         0.371411   
     22. B(H  19,C   9)                  1.0822         0.370500   
     23. B(H  20,C  10)                  1.0818         0.371097   
     24. B(H  21,C  11)                  1.0815         0.371489   
     25. B(H  22,C  13)                  1.0816         0.371410   
     26. B(H  23,C  15)                  1.0823         0.370498   
     27. A(C  15,C   0,H  16)          123.1448         0.352882   
     28. A(C   1,C   0,H  16)          123.1081         0.355561   
     29. A(C   1,C   0,C  15)          113.7471         0.432785   
     30. A(S   2,C   1,H  17)          126.0444         0.369080   
     31. A(C   0,C   1,S   2)          108.1777         0.453800   
     32. A(C   0,C   1,H  17)          125.7779         0.355625   
     33. A(C   1,S   2,C   3)           96.5832         0.470617   
     34. A(C   4,C   3,C  15)          125.5992         0.410787   
     35. A(S   2,C   3,C  15)          108.0518         0.451237   
     36. A(S   2,C   3,C   4)          126.3491         0.426593   
     37. A(C   3,C   4,N  14)          119.6593         0.408423   
     38. A(C   5,C   4,N  14)          118.6915         0.428701   
     39. A(C   3,C   4,C   5)          121.6492         0.407933   
     40. A(C   4,C   5,H  18)          121.3082         0.352486   
     41. A(C   4,C   5,N   6)          119.5219         0.429356   
     42. A(N   6,C   5,H  18)          119.1699         0.353400   
     43. A(C   5,N   6,C   7)          121.7866         0.429878   
     44. A(N   6,C   7,C  13)          118.6915         0.428701   
     45. A(N   6,C   7,C   8)          119.6593         0.408423   
     46. A(C   8,C   7,C  13)          121.6492         0.407934   
     47. A(C   9,C   8,S  12)          108.0517         0.451237   
     48. A(C   7,C   8,C   9)          125.5992         0.410787   
     49. A(C   7,C   8,S  12)          126.3491         0.426593   
     50. A(C   8,C   9,H  19)          123.7180         0.354697   
     51. A(C   8,C   9,C  10)          113.4403         0.431795   
     52. A(C  10,C   9,H  19)          122.8417         0.352786   
     53. A(C   9,C  10,C  11)          113.7471         0.432784   
     54. A(C  11,C  10,H  20)          123.1088         0.355561   
     55. A(C   9,C  10,H  20)          123.1441         0.352882   
     56. A(C  10,C  11,S  12)          108.1776         0.453799   
     57. A(S  12,C  11,H  21)          126.0441         0.369080   
     58. A(C  10,C  11,H  21)          125.7784         0.355624   
     59. A(C   8,S  12,C  11)           96.5833         0.470616   
     60. A(C   7,C  13,N  14)          119.5220         0.429356   
     61. A(N  14,C  13,H  22)          119.1697         0.353400   
     62. A(C   7,C  13,H  22)          121.3084         0.352487   
     63. A(C   4,N  14,C  13)          121.7865         0.429878   
     64. A(C   0,C  15,C   3)          113.4402         0.431794   
     65. A(C   3,C  15,H  23)          123.7177         0.354696   
     66. A(C   0,C  15,H  23)          122.8421         0.352785   
     67. D(S   2,C   1,C   0,C  15)     -0.0003         0.027408   
     68. D(H  17,C   1,C   0,C  15)    179.9997         0.027408   
     69. D(S   2,C   1,C   0,H  16)    179.9995         0.027408   
     70. D(H  17,C   1,C   0,H  16)     -0.0005         0.027408   
     71. D(C   3,S   2,C   1,C   0)      0.0001         0.006550   
     72. D(C   3,S   2,C   1,H  17)   -179.9999         0.006550   
     73. D(C  15,C   3,S   2,C   1)      0.0001         0.006357   
     74. D(C   4,C   3,S   2,C   1)    179.9996         0.006357   
     75. D(N  14,C   4,C   3,C  15)      0.0004         0.014092   
     76. D(N  14,C   4,C   3,S   2)   -179.9990         0.014092   
     77. D(C   5,C   4,C   3,S   2)      0.0006         0.014092   
     78. D(C   5,C   4,C   3,C  15)   -180.0000         0.014092   
     79. D(H  18,C   5,C   4,C   3)      0.0005         0.024546   
     80. D(N   6,C   5,C   4,C   3)   -179.9996         0.024546   
     81. D(N   6,C   5,C   4,N  14)      0.0000         0.024546   
     82. D(H  18,C   5,C   4,N  14)   -179.9999         0.024546   
     83. D(C   7,N   6,C   5,H  18)   -179.9998         0.029050   
     84. D(C   7,N   6,C   5,C   4)      0.0003         0.029050   
     85. D(C  13,C   7,N   6,C   5)     -0.0003         0.028524   
     86. D(C   8,C   7,N   6,C   5)    179.9999         0.028524   
     87. D(S  12,C   8,C   7,C  13)      0.0016         0.014092   
     88. D(S  12,C   8,C   7,N   6)   -179.9986         0.014092   
     89. D(C   9,C   8,C   7,C  13)   -179.9993         0.014092   
     90. D(C   9,C   8,C   7,N   6)      0.0006         0.014092   
     91. D(H  19,C   9,C   8,S  12)    179.9996         0.026676   
     92. D(H  19,C   9,C   8,C   7)      0.0003         0.026676   
     93. D(C  10,C   9,C   8,S  12)     -0.0002         0.026676   
     94. D(C  10,C   9,C   8,C   7)   -179.9995         0.026676   
     95. D(H  20,C  10,C   9,C   8)   -179.9997         0.024936   
     96. D(C  11,C  10,C   9,H  19)   -179.9995         0.024936   
     97. D(C  11,C  10,C   9,C   8)      0.0003         0.024936   
     98. D(H  20,C  10,C   9,H  19)      0.0005         0.024936   
     99. D(H  21,C  11,C  10,H  20)     -0.0010         0.027408   
    100. D(H  21,C  11,C  10,C   9)    179.9990         0.027408   
    101. D(S  12,C  11,C  10,H  20)    179.9998         0.027408   
    102. D(S  12,C  11,C  10,C   9)     -0.0003         0.027408   
    103. D(C   8,S  12,C  11,H  21)   -179.9991         0.006550   
    104. D(C   8,S  12,C  11,C  10)      0.0001         0.006550   
    105. D(C  11,S  12,C   8,C   9)      0.0000         0.006357   
    106. D(C  11,S  12,C   8,C   7)    179.9993         0.006357   
    107. D(H  22,C  13,C   7,C   8)      0.0001         0.024547   
    108. D(H  22,C  13,C   7,N   6)   -179.9997         0.024547   
    109. D(N  14,C  13,C   7,C   8)    179.9997         0.024547   
    110. D(N  14,C  13,C   7,N   6)     -0.0001         0.024547   
    111. D(C   4,N  14,C  13,H  22)   -179.9999         0.029050   
    112. D(C   4,N  14,C  13,C   7)      0.0005         0.029050   
    113. D(C  13,N  14,C   4,C   5)     -0.0004         0.028524   
    114. D(C  13,N  14,C   4,C   3)    179.9992         0.028524   
    115. D(H  23,C  15,C   3,C   4)      0.0004         0.026676   
    116. D(C   0,C  15,C   3,C   4)   -179.9998         0.026676   
    117. D(C   0,C  15,C   3,S   2)     -0.0003         0.026676   
    118. D(H  23,C  15,C   0,H  16)      0.0004         0.024936   
    119. D(H  23,C  15,C   0,C   1)   -179.9997         0.024936   
    120. D(H  23,C  15,C   3,S   2)    179.9998         0.026676   
    121. D(C   3,C  15,C   0,H  16)   -179.9994         0.024936   
    122. D(C   3,C  15,C   0,C   1)      0.0004         0.024936   
    -----------------------------------------------------------------

Number of atoms                         .... 24
Number of degrees of freedom            .... 122

         *************************************************************
         *                GEOMETRY OPTIMIZATION CYCLE   1            *
         *************************************************************
      -----------------------------------------------------------      
     |                   =====================                   |     
     |                           x T B                           |     
     |                   =====================                   |     
     |                         S. Grimme                         |     
     |          Mulliken Center for Theoretical Chemistry        |     
     |                    University of Bonn                     |     
      -----------------------------------------------------------      

   * xtb version 6.2.3 (830e466) compiled by 'ehlert@majestix' on 2020-03-16

   xtb is free software: you can redistribute it and/or modify it under
   the terms of the GNU Lesser General Public License as published by
   the Free Software Foundation, either version 3 of the License, or
   (at your option) any later version.
   
   xtb is distributed in the hope that it will be useful,
   but WITHOUT ANY WARRANTY; without even the implied warranty of
   MERCHANTABILITY or FITNESS FOR A PARTICULAR PURPOSE.  See the
   GNU Lesser General Public License for more details.
   
   Cite this work as:
   * S. Grimme, C. Bannwarth, P. Shushkov, J. Chem. Theory Comput., 2017,
     13, 1989-2009. DOI: 10.1021/acs.jctc.7b00118
   * C. Bannwarth, S. Ehlert and S. Grimme., J. Chem. Theory Comput., 2019,
     15, 1652-1671. DOI: 10.1021/acs.jctc.8b01176
   * P. Pracht, E. Caldeweyher, S. Ehlert, S. Grimme, ChemRxiv, 2019, preprint.
     DOI: 10.26434/chemrxiv.8326202.v1
   
   for DFT-D4:
   * E. Caldeweyher, C. Bannwarth and S. Grimme, J. Chem. Phys., 2017,
     147, 034112. DOI: 10.1063/1.4993215
   * E. Caldeweyher, S. Ehlert, A. Hansen, H. Neugebauer, S. Spicher,
     C. Bannwarth and S. Grimme, J. Chem. Phys., 2019, 150, 154122.
     DOI: 10.1063/1.5090222
   
   for sTDA-xTB:
   * S. Grimme and C. Bannwarth, J. Chem. Phys., 2016, 145, 054103.
     DOI: 10.1063/1.4959605
   
   in the mass-spec context:
   * V. Asgeirsson, C. Bauer and S. Grimme, Chem. Sci., 2017, 8, 4879.
     DOI: 10.1039/c7sc00601b
   
   for metadynamics refer to:
   * S. Grimme, J. Chem. Theory Comput., 2019, 155, 2847-2862
     DOI: 10.1021/acs.jctc.9b00143
   
   with help from (in alphabetical order)
   C. Bannwarth, F. Bohle, G. Brandenburg, E. Caldeweyher, M. Checinski,
   S. Dohm, S. Ehlert, S. Ehrlich, F. März, H. Neugebauer, J. Pisarek,
   P. Pracht, P. Shushkov, and S. Spicher.
   
 * started run on 2026/01/18 at 23:58:42.524     

           -------------------------------------------------
          |                Calculation Setup                |
           -------------------------------------------------

          program call               : /appl/orca_4.2.1/orca_4_2_1_linux_x86-64_openmpi314/xtb pre_opt_XTB.xyz --grad -c 0 -u 0 -P 1 --namespace pre_opt
          hostname                   : cnode10
          calculation namespace      : pre_opt
          coordinate file            : pre_opt_XTB.xyz
          omp threads                :                     1
          number of atoms            :                    24
          number of electrons        :                    78
          charge                     :                     0
          spin                       :                   0.0
          first test random number   :      0.75769663620936

########################################################################
[WARNING] Please study the warnings concerning your input carefully
-2- prog_main: XTBPATH is not set, using XTBHOME instead
-1- prog_main: XTBHOME is not set, using HOME instead
########################################################################
           ------------------------------------------------- 
          |                 G F N 2 - x T B                 |
          | Geometry, Frequencies, Noncovalent interactions |
          |            JCTC 2019 parametrisation            |
           ------------------------------------------------- 
             k(s)              :                1.8500
             k(p)              :                2.2300
             k(d)              :                2.2300
             k(f)              :                2.0000
             kEN (H0ij)        :               -2.0000
             D4 a1             :                0.5200
             D4 a2             :                5.0000
             D4 s6             :                1.0000
             D4 s8             :                2.7000
             D4 s9             :                5.0000
             alphaj            :                2.0000

  Z AO/shell   Hii/eV     exponent
  1     Wed Apr 25 08:07:45 CEST 2018   EN: 2.200 GM2: 0.406  GM3: 0.0800  RAES: 1.40
     1s    -10.707211    1.230000
  6     Wed Apr 25 08:07:45 CEST 2018   EN: 2.550 GM2: 0.538  GM3: 0.1500  RAES: 3.00
     2s    -13.970922    2.096432
     2p    -10.063292    1.800000
  7     Wed Apr 25 08:07:45 CEST 2018   EN: 3.040 GM2: 0.461  GM3:-0.0640  RAES: 1.90
     2s    -16.686243    2.339881
     2p    -12.523956    2.014332
 16     Tue Apr 24 11:44:34 CEST 2018   EN: 2.580 GM2: 0.340  GM3:-0.0502  RAES: 3.10
     3s    -20.029654    1.981333
     3p    -11.377694    2.025643
     3d     -0.420282    1.702555

           ------------------------------------------------- 
          |        Self-Consistent Charge Iterations        |
           ------------------------------------------------- 

          ...................................................
          :                      SETUP                      :
          :.................................................:
          :  # basis functions                  84          :
          :  # atomic orbitals                  82          :
          :  # shells                           42          :
          :  # electrons                        78          :
          :  max. iterations                   250          :
          :  Hamiltonian                  GFN2-xTB          :
          :  restarted?                      false          :
          :  GBSA solvation                  false          :
          :  PC potential                    false          :
          :  electronic temp.          300.0000000     K    :
          :  accuracy                    1.0000000          :
          :  -> integral cutoff          0.2500000E+02      :
          :  -> integral neglect         0.1000000E-07      :
          :  -> SCF convergence          0.1000000E-05 Eh   :
          :  -> wf. convergence          0.1000000E-03 e    :
          :  Broyden damping             0.4000000          :
          ...................................................

 iter      E             dE          RMSdq      gap      omega  full diag
   1    -42.6215690 -0.426216E+02  0.440E+00    1.94       0.0  T
   2    -42.6475670 -0.259980E-01  0.272E+00    1.99       1.0  T
   3    -42.6298844  0.176826E-01  0.141E+00    1.90       1.0  T
   4    -42.6530089 -0.231246E-01  0.534E-01    1.71       1.0  T
   5    -42.6576926 -0.468370E-02  0.182E-01    1.74       1.0  T
   6    -42.6578914 -0.198810E-03  0.590E-02    1.73       1.0  T
   7    -42.6579313 -0.398970E-04  0.280E-02    1.73       1.0  T
   8    -42.6579363 -0.499652E-05  0.126E-02    1.73       1.6  T
   9    -42.6579365 -0.222107E-06  0.530E-03    1.74       3.9  T
  10    -42.6579367 -0.149627E-06  0.187E-03    1.73      10.9  T
  11    -42.6579367 -0.799353E-09  0.987E-04    1.73      20.7  T
  12    -42.6579367 -0.878517E-08  0.304E-04    1.73      67.2  T

   *** convergence criteria satisfied after 12 iterations ***

         #    Occupation            Energy/Eh            Energy/eV
      -------------------------------------------------------------
         1        2.0000           -0.7417066             -20.1829
       ...           ...                  ...                  ...
        33        2.0000           -0.4423827             -12.0378
        34        2.0000           -0.4068007             -11.0696
        35        2.0000           -0.4050255             -11.0213
        36        2.0000           -0.4047725             -11.0144
        37        2.0000           -0.4033175             -10.9748
        38        2.0000           -0.3808881             -10.3645
        39        2.0000           -0.3562607              -9.6943 (HOMO)
        40                         -0.2925195              -7.9599 (LUMO)
        41                         -0.2713261              -7.3832
        42                         -0.2530540              -6.8859
        43                         -0.2133692              -5.8061
        44                         -0.1941758              -5.2838
       ...                                ...                  ...
        82                          0.7458751              20.2963
      -------------------------------------------------------------
                  HL-Gap            0.0637412 Eh            1.7345 eV
             Fermi-level           -0.3243901 Eh           -8.8271 eV

 SCC (total)                   0 d,  0 h,  0 min,  0.053 sec
 SCC setup                      ...        0 min,  0.000 sec (  0.660%)
 Dispersion                     ...        0 min,  0.000 sec (  0.630%)
 integral evaluation            ...        0 min,  0.019 sec ( 36.318%)
 zeroth order Hamiltonian       ...        0 min,  0.000 sec (  0.457%)
 iterations                     ...        0 min,  0.017 sec ( 31.766%)
 molecular gradient             ...        0 min,  0.016 sec ( 29.874%)
 printout                       ...        0 min,  0.000 sec (  0.215%)

         :::::::::::::::::::::::::::::::::::::::::::::::::::::
         ::                     SUMMARY                     ::
         :::::::::::::::::::::::::::::::::::::::::::::::::::::
         :: total energy             -42.055228146191 Eh    ::
         :: gradient norm              0.128548439626 Eh/a0 ::
         :: HOMO-LUMO gap              1.734486334982 eV    ::
         ::.................................................::
         :: SCC energy               -42.657936699502 Eh    ::
         :: -> isotropic ES            0.016271532935 Eh    ::
         :: -> anisotropic ES          0.002246701255 Eh    ::
         :: -> anisotropic XC          0.032519576525 Eh    ::
         :: -> dispersion             -0.027938858774 Eh    ::
         :: repulsion energy           0.603028460936 Eh    ::
         :: add. restraining           0.000000000000 Eh    ::
         :::::::::::::::::::::::::::::::::::::::::::::::::::::

           -------------------------------------------------
          |                Property Printout                |
           -------------------------------------------------

    * Orbital Energies and Occupations

         #    Occupation            Energy/Eh            Energy/eV
      -------------------------------------------------------------
         1        2.0000           -0.7417066             -20.1829
       ...           ...                  ...                  ...
        27        2.0000           -0.4675846             -12.7236
        28        2.0000           -0.4637907             -12.6204
        29        2.0000           -0.4637386             -12.6190
        30        2.0000           -0.4622455             -12.5783
        31        2.0000           -0.4526579             -12.3174
        32        2.0000           -0.4493811             -12.2283
        33        2.0000           -0.4423827             -12.0378
        34        2.0000           -0.4068007             -11.0696
        35        2.0000           -0.4050255             -11.0213
        36        2.0000           -0.4047725             -11.0144
        37        2.0000           -0.4033175             -10.9748
        38        2.0000           -0.3808881             -10.3645
        39        2.0000           -0.3562607              -9.6943 (HOMO)
        40                         -0.2925195              -7.9599 (LUMO)
        41                         -0.2713261              -7.3832
        42                         -0.2530540              -6.8859
        43                         -0.2133692              -5.8061
        44                         -0.1941758              -5.2838
        45                         -0.1917360              -5.2174
        46                         -0.1835446              -4.9945
        47                         -0.1647672              -4.4835
        48                         -0.1357331              -3.6935
        49                         -0.1342636              -3.6535
        50                         -0.1205615              -3.2806
       ...                                ...                  ...
        82                          0.7458751              20.2963
      -------------------------------------------------------------
                  HL-Gap            0.0637412 Eh            1.7345 eV
             Fermi-level           -0.3243901 Eh           -8.8271 eV

     #   Z        covCN         q      C6AA      α(0)
     1   6 C      3.194    -0.046    28.599     8.720
     2   6 C      2.921    -0.023    28.570     8.765
     3  16 S      2.503     0.009   140.705    19.964
     4   6 C      2.980     0.010    27.784     8.646
     5   6 C      2.918     0.082    26.166     8.388
     6   6 C      2.850     0.046    26.955     8.509
     7   7 N      1.839    -0.225    26.765     7.667
     8   6 C      2.918     0.082    26.166     8.388
     9   6 C      2.980     0.010    27.784     8.646
    10   6 C      3.188    -0.042    28.552     8.717
    11   6 C      3.194    -0.046    28.599     8.720
    12   6 C      2.921    -0.023    28.570     8.765
    13  16 S      2.503     0.009   140.705    19.964
    14   6 C      2.850     0.046    26.955     8.509
    15   7 N      1.839    -0.225    26.765     7.667
    16   6 C      3.188    -0.042    28.552     8.717
    17   1 H      0.925     0.035     2.515     2.480
    18   1 H      0.925     0.050     2.316     2.380
    19   1 H      0.925     0.050     2.314     2.379
    20   1 H      0.925     0.053     2.287     2.365
    21   1 H      0.925     0.035     2.515     2.480
    22   1 H      0.925     0.050     2.316     2.380
    23   1 H      0.925     0.050     2.314     2.379
    24   1 H      0.925     0.053     2.287     2.365

 Mol. C6AA /au·bohr⁶  :      11986.180732
 Mol. C8AA /au·bohr⁸  :     356222.114666
 Mol. α(0) /au        :        177.961239


Wiberg/Mayer (AO) data.
largest (>0.10) Wiberg bond orders for each atom
          total WBO             WBO to atom ...
     1  C   3.985        C    2 1.541    C   16 1.357    H   17 0.967
     2  C   3.932        C    1 1.541    S    3 1.244    H   18 0.970    C    4 0.119
     3  S   2.699        C    2 1.244    C    4 1.186
     4  C   3.947        C   16 1.474    S    3 1.186    C    5 1.092    C    2 0.119
     5  C   3.962        N   15 1.357    C    6 1.342    C    4 1.092
     6  C   3.977        N    7 1.464    C    5 1.342    H   19 0.960    C   14 0.111
     7  N   3.053        C    6 1.464    C    8 1.357
     8  C   3.962        N    7 1.357    C   14 1.342    C    9 1.092
     9  C   3.947        C   10 1.474    S   13 1.186    C    8 1.092    C   12 0.119
    10  C   3.980        C    9 1.474    C   11 1.357    H   20 0.965
    11  C   3.985        C   12 1.541    C   10 1.357    H   21 0.967
    12  C   3.932        C   11 1.541    S   13 1.244    H   22 0.970    C    9 0.119
    13  S   2.699        C   12 1.244    C    9 1.186
    14  C   3.977        N   15 1.464    C    8 1.342    H   23 0.960    C    6 0.111
    15  N   3.053        C   14 1.464    C    5 1.357
    16  C   3.980        C    4 1.474    C    1 1.357    H   24 0.965
    17  H   0.998        C    1 0.967
    18  H   0.997        C    2 0.970
    19  H   0.997        C    6 0.960
    20  H   0.997        C   10 0.965
    21  H   0.998        C   11 0.967
    22  H   0.997        C   12 0.970
    23  H   0.997        C   14 0.960
    24  H   0.997        C   16 0.965

molecular dipole:
                 x           y           z       tot (Debye)
 q only:        0.000      -0.000      -0.000
   full:        0.000      -0.000      -0.000       0.000
molecular quadrupole (traceless):
                xx          xy          yy          xz          yz          zz
 q only:       10.699      -0.976      -6.704       4.246      -1.260      -3.995
  q+dip:       20.190       0.784     -11.312       2.117      -1.303      -8.878
   full:       18.043       0.462      -7.843       1.993       1.504     -10.200


           -------------------------------------------------
          | TOTAL ENERGY              -42.055228146191 Eh   |
          | GRADIENT NORM               0.128548439626 Eh/α |
          | HOMO-LUMO GAP               1.734486334982 eV   |
           -------------------------------------------------

------------------------------------------------------------------------
 * finished run on 2026/01/18 at 23:58:42.908     
------------------------------------------------------------------------
 total:
 * wall-time:     0 d,  0 h,  0 min,  0.383 sec
 *  cpu-time:     0 d,  0 h,  0 min,  0.086 sec
 * ratio c/w:     0.225 speedup
 SCF:
 * wall-time:     0 d,  0 h,  0 min,  0.053 sec
 *  cpu-time:     0 d,  0 h,  0 min,  0.053 sec
 * ratio c/w:     0.997 speedup


-------------------------   --------------------
FINAL SINGLE POINT ENERGY         0.000000000000
-------------------------   --------------------

------------------------------------------------------------------------------
                         ORCA GEOMETRY RELAXATION STEP
------------------------------------------------------------------------------

Reading the OPT-File                    .... done
Getting information on internals        .... done
Copying old internal coords+grads       .... done
Making the new internal coordinates     .... (new redundants).... done
Validating the new internal coordinates .... (new redundants).... done
Calculating the B-matrix                .... done
Calculating the G,G- and P matrices     .... done
Transforming gradient to internals      .... done
Projecting the internal gradient        .... done
Number of atoms                         ....  24
Number of internal coordinates          .... 122
Current Energy                          ....     0.000000000 Eh
Current gradient norm                   ....     0.128548440 Eh/bohr
Maximum allowed component of the step   ....  0.300
Current trust radius                    ....  0.300
Evaluating the initial hessian          ....  (Almloef) done
Projecting the Hessian                  .... done
Forming the augmented Hessian           .... done
Diagonalizing the augmented Hessian     .... done
Last element of RFO vector              ....  0.974604774
Lowest eigenvalues of augmented Hessian:
 -0.028056674  0.014092258  0.014092315  0.014452292  0.014452391
Length of the computed step             ....  0.229766970
The final length of the internal step   ....  0.229766970
Converting the step to cartesian space:
 Initial RMS(Int)=    0.0208021241
Transforming coordinates:
 Iter   0:  RMS(Cart)=    0.0862963874 RMS(Int)=    0.0208280062
 Iter   1:  RMS(Cart)=    0.0005868955 RMS(Int)=    0.0003182318
 Iter   2:  RMS(Cart)=    0.0000179620 RMS(Int)=    0.0000085617
 Iter   3:  RMS(Cart)=    0.0000004497 RMS(Int)=    0.0000001581
 Iter   4:  RMS(Cart)=    0.0000000101 RMS(Int)=    0.0000000065
done
Storing new coordinates                 .... done

                                .--------------------.
          ----------------------|Geometry convergence|-------------------------
          Item                value                   Tolerance       Converged
          ---------------------------------------------------------------------
          RMS gradient        0.0112247029            0.0001000000      NO
          MAX gradient        0.0475908356            0.0003000000      NO
          RMS step            0.0208021241            0.0020000000      NO
          MAX step            0.0724735536            0.0040000000      NO
          ........................................................
          Max(Bonds)      0.0384      Max(Angles)    2.94
          Max(Dihed)        0.00      Max(Improp)    0.00
          ---------------------------------------------------------------------

The optimization has not yet converged - more geometry cycles are needed


    ---------------------------------------------------------------------------
                         Redundant Internal Coordinates
                            (Angstroem and degrees)

        Definition                    Value    dE/dq     Step     New-Value
    ----------------------------------------------------------------------------
     1. B(C   1,C   0)                1.3883  0.012726 -0.0105    1.3777   
     2. B(S   2,C   1)                1.6806 -0.015203  0.0133    1.6940   
     3. B(C   3,S   2)                1.6857 -0.019893  0.0180    1.7037   
     4. B(C   4,C   3)                1.4765  0.027640 -0.0303    1.4462   
     5. B(C   5,C   4)                1.4024  0.000934 -0.0008    1.4017   
     6. B(N   6,C   5)                1.3583  0.047591 -0.0384    1.3200   
     7. B(C   7,N   6)                1.3607  0.032057 -0.0260    1.3346   
     8. B(C   8,C   7)                1.4765  0.027641 -0.0303    1.4462   
     9. B(C   9,C   8)                1.3917  0.009626 -0.0078    1.3840   
    10. B(C  10,C   9)                1.4004  0.005738 -0.0051    1.3953   
    11. B(C  11,C  10)                1.3883  0.012729 -0.0105    1.3777   
    12. B(S  12,C  11)                1.6806 -0.015203  0.0133    1.6940   
    13. B(S  12,C   8)                1.6857 -0.019893  0.0180    1.7037   
    14. B(C  13,C   7)                1.4024  0.000933 -0.0008    1.4017   
    15. B(N  14,C   4)                1.3607  0.032056 -0.0260    1.3346   
    16. B(N  14,C  13)                1.3583  0.047591 -0.0384    1.3200   
    17. B(C  15,C   3)                1.3917  0.009626 -0.0078    1.3840   
    18. B(C  15,C   0)                1.4004  0.005739 -0.0051    1.3953   
    19. B(H  16,C   0)                1.0818  0.003886 -0.0052    1.0767   
    20. B(H  17,C   1)                1.0815  0.008506 -0.0113    1.0703   
    21. B(H  18,C   5)                1.0816  0.002633 -0.0035    1.0781   
    22. B(H  19,C   9)                1.0822  0.005197 -0.0069    1.0753   
    23. B(H  20,C  10)                1.0818  0.003886 -0.0052    1.0767   
    24. B(H  21,C  11)                1.0815  0.008506 -0.0113    1.0703   
    25. B(H  22,C  13)                1.0816  0.002633 -0.0035    1.0781   
    26. B(H  23,C  15)                1.0823  0.005198 -0.0069    1.0753   
    27. A(C  15,C   0,H  16)          123.14 -0.001637    0.28    123.43   
    28. A(C   1,C   0,H  16)          123.11 -0.001300    0.23    123.34   
    29. A(C   1,C   0,C  15)          113.75  0.002937   -0.51    113.23   
    30. A(S   2,C   1,H  17)          126.04  0.014890   -1.95    124.09   
    31. A(C   0,C   1,S   2)          108.18 -0.017231    2.10    110.28   
    32. A(C   0,C   1,H  17)          125.78  0.002340   -0.15    125.63   
    33. A(C   1,S   2,C   3)           96.58  0.026012   -2.94     93.64   
    34. A(C   4,C   3,C  15)          125.60  0.001343   -0.15    125.45   
    35. A(S   2,C   3,C  15)          108.05 -0.014663    1.81    109.86   
    36. A(S   2,C   3,C   4)          126.35  0.013320   -1.66    124.69   
    37. A(C   3,C   4,N  14)          119.66  0.012979   -1.67    117.99   
    38. A(C   5,C   4,N  14)          118.69 -0.011070    1.38    120.07   
    39. A(C   3,C   4,C   5)          121.65 -0.001909    0.29    121.94   
    40. A(C   4,C   5,H  18)          121.31 -0.000807    0.22    121.53   
    41. A(C   4,C   5,N   6)          119.52 -0.010022    1.30    120.82   
    42. A(N   6,C   5,H  18)          119.17  0.010829   -1.52    117.65   
    43. A(C   5,N   6,C   7)          121.79  0.021092   -2.68    119.11   
    44. A(N   6,C   7,C  13)          118.69 -0.011070    1.38    120.07   
    45. A(N   6,C   7,C   8)          119.66  0.012979   -1.67    117.99   
    46. A(C   8,C   7,C  13)          121.65 -0.001909    0.29    121.94   
    47. A(C   9,C   8,S  12)          108.05 -0.014663    1.81    109.86   
    48. A(C   7,C   8,C   9)          125.60  0.001342   -0.15    125.45   
    49. A(C   7,C   8,S  12)          126.35  0.013320   -1.66    124.69   
    50. A(C   8,C   9,H  19)          123.72  0.001134   -0.16    123.56   
    51. A(C   8,C   9,C  10)          113.44  0.002945   -0.46    112.98   
    52. A(C  10,C   9,H  19)          122.84 -0.004079    0.62    123.46   
    53. A(C   9,C  10,C  11)          113.75  0.002937   -0.51    113.23   
    54. A(C  11,C  10,H  20)          123.11 -0.001298    0.23    123.34   
    55. A(C   9,C  10,H  20)          123.14 -0.001639    0.28    123.43   
    56. A(C  10,C  11,S  12)          108.18 -0.017231    2.10    110.28   
    57. A(S  12,C  11,H  21)          126.04  0.014890   -1.95    124.09   
    58. A(C  10,C  11,H  21)          125.78  0.002341   -0.15    125.63   
    59. A(C   8,S  12,C  11)           96.58  0.026012   -2.94     93.64   
    60. A(C   7,C  13,N  14)          119.52 -0.010022    1.30    120.82   
    61. A(N  14,C  13,H  22)          119.17  0.010829   -1.52    117.65   
    62. A(C   7,C  13,H  22)          121.31 -0.000807    0.22    121.53   
    63. A(C   4,N  14,C  13)          121.79  0.021092   -2.68    119.11   
    64. A(C   0,C  15,C   3)          113.44  0.002944   -0.46    112.98   
    65. A(C   3,C  15,H  23)          123.72  0.001134   -0.16    123.56   
    66. A(C   0,C  15,H  23)          122.84 -0.004078    0.62    123.46   
    67. D(S   2,C   1,C   0,C  15)     -0.00 -0.000000    0.00     -0.00   
    68. D(H  17,C   1,C   0,C  15)    180.00 -0.000000    0.00    180.00   
    69. D(S   2,C   1,C   0,H  16)    180.00 -0.000000    0.00    180.00   
    70. D(H  17,C   1,C   0,H  16)     -0.00 -0.000000    0.00     -0.00   
    71. D(C   3,S   2,C   1,C   0)      0.00  0.000000   -0.00     -0.00   
    72. D(C   3,S   2,C   1,H  17)   -180.00  0.000000   -0.00   -180.00   
    73. D(C  15,C   3,S   2,C   1)      0.00  0.000000   -0.00      0.00   
    74. D(C   4,C   3,S   2,C   1)    180.00 -0.000000    0.00    180.00   
    75. D(N  14,C   4,C   3,C  15)      0.00  0.000000   -0.00      0.00   
    76. D(N  14,C   4,C   3,S   2)   -180.00  0.000000   -0.00   -180.00   
    77. D(C   5,C   4,C   3,S   2)      0.00  0.000000   -0.00      0.00   
    78. D(C   5,C   4,C   3,C  15)   -180.00 -0.000000    0.00   -180.00   
    79. D(H  18,C   5,C   4,C   3)      0.00  0.000000   -0.00      0.00   
    80. D(N   6,C   5,C   4,C   3)   -180.00  0.000000   -0.00   -180.00   
    81. D(N   6,C   5,C   4,N  14)      0.00 -0.000000    0.00      0.00   
    82. D(H  18,C   5,C   4,N  14)   -180.00 -0.000000    0.00   -180.00   
    83. D(C   7,N   6,C   5,H  18)   -180.00  0.000000   -0.00   -180.00   
    84. D(C   7,N   6,C   5,C   4)      0.00  0.000000   -0.00      0.00   
    85. D(C  13,C   7,N   6,C   5)     -0.00 -0.000000    0.00     -0.00   
    86. D(C   8,C   7,N   6,C   5)    180.00  0.000000   -0.00    180.00   
    87. D(S  12,C   8,C   7,C  13)      0.00  0.000000   -0.00      0.00   
    88. D(S  12,C   8,C   7,N   6)   -180.00  0.000000   -0.00   -180.00   
    89. D(C   9,C   8,C   7,C  13)   -180.00 -0.000000    0.00   -180.00   
    90. D(C   9,C   8,C   7,N   6)      0.00 -0.000000    0.00      0.00   
    91. D(H  19,C   9,C   8,S  12)    180.00 -0.000000    0.00    180.00   
    92. D(H  19,C   9,C   8,C   7)      0.00 -0.000000   -0.00      0.00   
    93. D(C  10,C   9,C   8,S  12)     -0.00 -0.000000    0.00     -0.00   
    94. D(C  10,C   9,C   8,C   7)   -180.00  0.000000   -0.00   -180.00   
    95. D(H  20,C  10,C   9,C   8)   -180.00  0.000000    0.00   -180.00   
    96. D(C  11,C  10,C   9,H  19)   -180.00  0.000000   -0.00   -180.00   
    97. D(C  11,C  10,C   9,C   8)      0.00  0.000000   -0.00      0.00   
    98. D(H  20,C  10,C   9,H  19)      0.00  0.000000   -0.00      0.00   
    99. D(H  21,C  11,C  10,H  20)     -0.00 -0.000000    0.00     -0.00   
   100. D(H  21,C  11,C  10,C   9)    180.00 -0.000000    0.00    180.00   
   101. D(S  12,C  11,C  10,H  20)    180.00 -0.000000    0.00    180.00   
   102. D(S  12,C  11,C  10,C   9)     -0.00 -0.000000    0.00     -0.00   
   103. D(C   8,S  12,C  11,H  21)   -180.00  0.000000   -0.00   -180.00   
   104. D(C   8,S  12,C  11,C  10)      0.00  0.000000   -0.00     -0.00   
   105. D(C  11,S  12,C   8,C   9)      0.00 -0.000000    0.00      0.00   
   106. D(C  11,S  12,C   8,C   7)    180.00 -0.000000    0.00    180.00   
   107. D(H  22,C  13,C   7,C   8)      0.00  0.000000   -0.00      0.00   
   108. D(H  22,C  13,C   7,N   6)   -180.00  0.000000   -0.00   -180.00   
   109. D(N  14,C  13,C   7,C   8)    180.00 -0.000000    0.00    180.00   
   110. D(N  14,C  13,C   7,N   6)     -0.00 -0.000000    0.00     -0.00   
   111. D(C   4,N  14,C  13,H  22)   -180.00 -0.000000    0.00   -180.00   
   112. D(C   4,N  14,C  13,C   7)      0.00  0.000000   -0.00      0.00   
   113. D(C  13,N  14,C   4,C   5)     -0.00 -0.000000    0.00     -0.00   
   114. D(C  13,N  14,C   4,C   3)    180.00 -0.000000    0.00    180.00   
   115. D(H  23,C  15,C   3,C   4)      0.00  0.000000   -0.00      0.00   
   116. D(C   0,C  15,C   3,C   4)   -180.00 -0.000000    0.00   -180.00   
   117. D(C   0,C  15,C   3,S   2)     -0.00 -0.000000    0.00     -0.00   
   118. D(H  23,C  15,C   0,H  16)      0.00  0.000000   -0.00      0.00   
   119. D(H  23,C  15,C   0,C   1)   -180.00  0.000000   -0.00   -180.00   
   120. D(H  23,C  15,C   3,S   2)    180.00  0.000000    0.00    180.00   
   121. D(C   3,C  15,C   0,H  16)   -180.00  0.000000   -0.00   -180.00   
   122. D(C   3,C  15,C   0,C   1)      0.00  0.000000   -0.00      0.00   
    ----------------------------------------------------------------------------

         *************************************************************
         *                GEOMETRY OPTIMIZATION CYCLE   2            *
         *************************************************************
      -----------------------------------------------------------      
     |                   =====================                   |     
     |                           x T B                           |     
     |                   =====================                   |     
     |                         S. Grimme                         |     
     |          Mulliken Center for Theoretical Chemistry        |     
     |                    University of Bonn                     |     
      -----------------------------------------------------------      

   * xtb version 6.2.3 (830e466) compiled by 'ehlert@majestix' on 2020-03-16

   xtb is free software: you can redistribute it and/or modify it under
   the terms of the GNU Lesser General Public License as published by
   the Free Software Foundation, either version 3 of the License, or
   (at your option) any later version.
   
   xtb is distributed in the hope that it will be useful,
   but WITHOUT ANY WARRANTY; without even the implied warranty of
   MERCHANTABILITY or FITNESS FOR A PARTICULAR PURPOSE.  See the
   GNU Lesser General Public License for more details.
   
   Cite this work as:
   * S. Grimme, C. Bannwarth, P. Shushkov, J. Chem. Theory Comput., 2017,
     13, 1989-2009. DOI: 10.1021/acs.jctc.7b00118
   * C. Bannwarth, S. Ehlert and S. Grimme., J. Chem. Theory Comput., 2019,
     15, 1652-1671. DOI: 10.1021/acs.jctc.8b01176
   * P. Pracht, E. Caldeweyher, S. Ehlert, S. Grimme, ChemRxiv, 2019, preprint.
     DOI: 10.26434/chemrxiv.8326202.v1
   
   for DFT-D4:
   * E. Caldeweyher, C. Bannwarth and S. Grimme, J. Chem. Phys., 2017,
     147, 034112. DOI: 10.1063/1.4993215
   * E. Caldeweyher, S. Ehlert, A. Hansen, H. Neugebauer, S. Spicher,
     C. Bannwarth and S. Grimme, J. Chem. Phys., 2019, 150, 154122.
     DOI: 10.1063/1.5090222
   
   for sTDA-xTB:
   * S. Grimme and C. Bannwarth, J. Chem. Phys., 2016, 145, 054103.
     DOI: 10.1063/1.4959605
   
   in the mass-spec context:
   * V. Asgeirsson, C. Bauer and S. Grimme, Chem. Sci., 2017, 8, 4879.
     DOI: 10.1039/c7sc00601b
   
   for metadynamics refer to:
   * S. Grimme, J. Chem. Theory Comput., 2019, 155, 2847-2862
     DOI: 10.1021/acs.jctc.9b00143
   
   with help from (in alphabetical order)
   C. Bannwarth, F. Bohle, G. Brandenburg, E. Caldeweyher, M. Checinski,
   S. Dohm, S. Ehlert, S. Ehrlich, F. März, H. Neugebauer, J. Pisarek,
   P. Pracht, P. Shushkov, and S. Spicher.
   
 * started run on 2026/01/18 at 23:58:43.821     

           -------------------------------------------------
          |                Calculation Setup                |
           -------------------------------------------------

          program call               : /appl/orca_4.2.1/orca_4_2_1_linux_x86-64_openmpi314/xtb pre_opt_XTB.xyz --grad -c 0 -u 0 -P 1 --namespace pre_opt
          hostname                   : cnode10
          calculation namespace      : pre_opt
          coordinate file            : pre_opt_XTB.xyz
          omp threads                :                     1
          number of atoms            :                    24
          number of electrons        :                    78
          charge                     :                     0
          spin                       :                   0.0
          first test random number   :      0.38531834201517

########################################################################
[WARNING] Please study the warnings concerning your input carefully
-2- prog_main: XTBPATH is not set, using XTBHOME instead
-1- prog_main: XTBHOME is not set, using HOME instead
########################################################################
           ------------------------------------------------- 
          |                 G F N 2 - x T B                 |
          | Geometry, Frequencies, Noncovalent interactions |
          |            JCTC 2019 parametrisation            |
           ------------------------------------------------- 
             k(s)              :                1.8500
             k(p)              :                2.2300
             k(d)              :                2.2300
             k(f)              :                2.0000
             kEN (H0ij)        :               -2.0000
             D4 a1             :                0.5200
             D4 a2             :                5.0000
             D4 s6             :                1.0000
             D4 s8             :                2.7000
             D4 s9             :                5.0000
             alphaj            :                2.0000

  Z AO/shell   Hii/eV     exponent
  1     Wed Apr 25 08:07:45 CEST 2018   EN: 2.200 GM2: 0.406  GM3: 0.0800  RAES: 1.40
     1s    -10.707211    1.230000
  6     Wed Apr 25 08:07:45 CEST 2018   EN: 2.550 GM2: 0.538  GM3: 0.1500  RAES: 3.00
     2s    -13.970922    2.096432
     2p    -10.063292    1.800000
  7     Wed Apr 25 08:07:45 CEST 2018   EN: 3.040 GM2: 0.461  GM3:-0.0640  RAES: 1.90
     2s    -16.686243    2.339881
     2p    -12.523956    2.014332
 16     Tue Apr 24 11:44:34 CEST 2018   EN: 2.580 GM2: 0.340  GM3:-0.0502  RAES: 3.10
     3s    -20.029654    1.981333
     3p    -11.377694    2.025643
     3d     -0.420282    1.702555

           ------------------------------------------------- 
          |        Self-Consistent Charge Iterations        |
           ------------------------------------------------- 

          ...................................................
          :                      SETUP                      :
          :.................................................:
          :  # basis functions                  84          :
          :  # atomic orbitals                  82          :
          :  # shells                           42          :
          :  # electrons                        78          :
          :  max. iterations                   250          :
          :  Hamiltonian                  GFN2-xTB          :
          :  restarted?                      false          :
          :  GBSA solvation                  false          :
          :  PC potential                    false          :
          :  electronic temp.          300.0000000     K    :
          :  accuracy                    1.0000000          :
          :  -> integral cutoff          0.2500000E+02      :
          :  -> integral neglect         0.1000000E-07      :
          :  -> SCF convergence          0.1000000E-05 Eh   :
          :  -> wf. convergence          0.1000000E-03 e    :
          :  Broyden damping             0.4000000          :
          ...................................................

 iter      E             dE          RMSdq      gap      omega  full diag
   1    -42.6814808 -0.426815E+02  0.427E+00    1.83       0.0  T
   2    -42.7095081 -0.280273E-01  0.260E+00    1.96       1.0  T
   3    -42.6945782  0.149300E-01  0.135E+00    1.93       1.0  T
   4    -42.7137061 -0.191279E-01  0.540E-01    1.71       1.0  T
   5    -42.7185677 -0.486161E-02  0.169E-01    1.75       1.0  T
   6    -42.7187228 -0.155048E-03  0.521E-02    1.74       1.0  T
   7    -42.7187536 -0.308511E-04  0.233E-02    1.74       1.0  T
   8    -42.7187581 -0.451363E-05  0.107E-02    1.74       1.9  T
   9    -42.7187583 -0.202873E-06  0.525E-03    1.74       3.9  T
  10    -42.7187584 -0.111724E-06  0.154E-03    1.74      13.2  T
  11    -42.7187584 -0.100675E-08  0.818E-04    1.74      25.0  T
  12    -42.7187584 -0.514615E-08  0.256E-04    1.74      79.7  T

   *** convergence criteria satisfied after 12 iterations ***

         #    Occupation            Energy/Eh            Energy/eV
      -------------------------------------------------------------
         1        2.0000           -0.7400635             -20.1382
       ...           ...                  ...                  ...
        33        2.0000           -0.4438582             -12.0780
        34        2.0000           -0.4142566             -11.2725
        35        2.0000           -0.4056143             -11.0373
        36        2.0000           -0.4053229             -11.0294
        37        2.0000           -0.4042146             -10.9992
        38        2.0000           -0.3784110             -10.2971
        39        2.0000           -0.3553120              -9.6685 (HOMO)
        40                         -0.2913478              -7.9280 (LUMO)
        41                         -0.2653173              -7.2197
        42                         -0.2527372              -6.8773
        43                         -0.2108728              -5.7381
        44                         -0.2011511              -5.4736
       ...                                ...                  ...
        82                          0.7195258              19.5793
      -------------------------------------------------------------
                  HL-Gap            0.0639642 Eh            1.7406 eV
             Fermi-level           -0.3233299 Eh           -8.7983 eV

 SCC (total)                   0 d,  0 h,  0 min,  0.050 sec
 SCC setup                      ...        0 min,  0.000 sec (  0.872%)
 Dispersion                     ...        0 min,  0.000 sec (  0.663%)
 integral evaluation            ...        0 min,  0.018 sec ( 36.467%)
 zeroth order Hamiltonian       ...        0 min,  0.000 sec (  0.454%)
 iterations                     ...        0 min,  0.016 sec ( 31.246%)
 molecular gradient             ...        0 min,  0.015 sec ( 29.984%)
 printout                       ...        0 min,  0.000 sec (  0.227%)

         :::::::::::::::::::::::::::::::::::::::::::::::::::::
         ::                     SUMMARY                     ::
         :::::::::::::::::::::::::::::::::::::::::::::::::::::
         :: total energy             -42.073295374456 Eh    ::
         :: gradient norm              0.068064027507 Eh/a0 ::
         :: HOMO-LUMO gap              1.740554179736 eV    ::
         ::.................................................::
         :: SCC energy               -42.718758442865 Eh    ::
         :: -> isotropic ES            0.015406808480 Eh    ::
         :: -> anisotropic ES          0.002219151532 Eh    ::
         :: -> anisotropic XC          0.030572505687 Eh    ::
         :: -> dispersion             -0.028461081479 Eh    ::
         :: repulsion energy           0.645780297815 Eh    ::
         :: add. restraining           0.000000000000 Eh    ::
         :::::::::::::::::::::::::::::::::::::::::::::::::::::

           -------------------------------------------------
          |                Property Printout                |
           -------------------------------------------------

    * Orbital Energies and Occupations

         #    Occupation            Energy/Eh            Energy/eV
      -------------------------------------------------------------
         1        2.0000           -0.7400635             -20.1382
       ...           ...                  ...                  ...
        27        2.0000           -0.4698920             -12.7864
        28        2.0000           -0.4686551             -12.7528
        29        2.0000           -0.4643360             -12.6352
        30        2.0000           -0.4643251             -12.6349
        31        2.0000           -0.4554546             -12.3935
        32        2.0000           -0.4497280             -12.2377
        33        2.0000           -0.4438582             -12.0780
        34        2.0000           -0.4142566             -11.2725
        35        2.0000           -0.4056143             -11.0373
        36        2.0000           -0.4053229             -11.0294
        37        2.0000           -0.4042146             -10.9992
        38        2.0000           -0.3784110             -10.2971
        39        2.0000           -0.3553120              -9.6685 (HOMO)
        40                         -0.2913478              -7.9280 (LUMO)
        41                         -0.2653173              -7.2197
        42                         -0.2527372              -6.8773
        43                         -0.2108728              -5.7381
        44                         -0.2011511              -5.4736
        45                         -0.1986040              -5.4043
        46                         -0.1800847              -4.9004
        47                         -0.1595024              -4.3403
        48                         -0.1285788              -3.4988
        49                         -0.1266111              -3.4453
        50                         -0.1075195              -2.9258
       ...                                ...                  ...
        82                          0.7195258              19.5793
      -------------------------------------------------------------
                  HL-Gap            0.0639642 Eh            1.7406 eV
             Fermi-level           -0.3233299 Eh           -8.7983 eV

     #   Z        covCN         q      C6AA      α(0)
     1   6 C      3.153    -0.045    28.805     8.777
     2   6 C      2.934    -0.021    28.532     8.760
     3  16 S      2.409    -0.003   141.174    19.998
     4   6 C      2.998     0.011    27.766     8.644
     5   6 C      2.970     0.082    26.173     8.392
     6   6 C      2.892     0.048    26.925     8.507
     7   7 N      1.848    -0.222    26.699     7.658
     8   6 C      2.970     0.082    26.173     8.392
     9   6 C      2.998     0.011    27.766     8.644
    10   6 C      3.148    -0.042    28.755     8.772
    11   6 C      3.153    -0.045    28.805     8.777
    12   6 C      2.934    -0.021    28.532     8.760
    13  16 S      2.409    -0.003   141.174    19.998
    14   6 C      2.892     0.048    26.925     8.507
    15   7 N      1.848    -0.222    26.699     7.658
    16   6 C      3.148    -0.042    28.755     8.772
    17   1 H      0.926     0.039     2.463     2.454
    18   1 H      0.927     0.050     2.321     2.382
    19   1 H      0.926     0.047     2.362     2.403
    20   1 H      0.926     0.057     2.235     2.338
    21   1 H      0.926     0.039     2.463     2.454
    22   1 H      0.927     0.050     2.321     2.382
    23   1 H      0.926     0.047     2.362     2.403
    24   1 H      0.926     0.057     2.235     2.338

 Mol. C6AA /au·bohr⁶  :      11998.488034
 Mol. C8AA /au·bohr⁸  :     356744.122772
 Mol. α(0) /au        :        178.170677


Wiberg/Mayer (AO) data.
largest (>0.10) Wiberg bond orders for each atom
          total WBO             WBO to atom ...
     1  C   3.986        C    2 1.558    C   16 1.344    H   17 0.966
     2  C   3.929        C    1 1.558    S    3 1.231    H   18 0.971    C    4 0.112
     3  S   2.667        C    2 1.231    C    4 1.166
     4  C   3.948        C   16 1.482    S    3 1.166    C    5 1.112    C    2 0.112
     5  C   3.962        N   15 1.353    C    6 1.318    C    4 1.112
     6  C   3.980        N    7 1.486    C    5 1.318    H   19 0.958    C   14 0.110
     7  N   3.063        C    6 1.486    C    8 1.353
     8  C   3.962        N    7 1.353    C   14 1.318    C    9 1.112
     9  C   3.948        C   10 1.482    S   13 1.166    C    8 1.112    C   12 0.112
    10  C   3.978        C    9 1.482    C   11 1.344    H   20 0.964
    11  C   3.986        C   12 1.558    C   10 1.344    H   21 0.966
    12  C   3.929        C   11 1.558    S   13 1.231    H   22 0.971    C    9 0.112
    13  S   2.667        C   12 1.231    C    9 1.166
    14  C   3.980        N   15 1.486    C    8 1.318    H   23 0.958    C    6 0.110
    15  N   3.063        C   14 1.486    C    5 1.353
    16  C   3.978        C    4 1.482    C    1 1.344    H   24 0.964
    17  H   0.998        C    1 0.966
    18  H   0.997        C    2 0.971
    19  H   0.997        C    6 0.958
    20  H   0.997        C   10 0.964
    21  H   0.998        C   11 0.966
    22  H   0.997        C   12 0.971
    23  H   0.997        C   14 0.958
    24  H   0.997        C   16 0.964

molecular dipole:
                 x           y           z       tot (Debye)
 q only:        0.000      -0.000      -0.000
   full:        0.000       0.000       0.000       0.000
molecular quadrupole (traceless):
                xx          xy          yy          xz          yz          zz
 q only:       10.865      -0.345      -6.617       2.885      -1.176      -4.248
  q+dip:       18.107       1.191     -10.276       0.873      -1.409      -7.832
   full:       16.490       0.741      -7.121       1.127       1.372      -9.370


           -------------------------------------------------
          | TOTAL ENERGY              -42.073295374456 Eh   |
          | GRADIENT NORM               0.068064027507 Eh/α |
          | HOMO-LUMO GAP               1.740554179736 eV   |
           -------------------------------------------------

------------------------------------------------------------------------
 * finished run on 2026/01/18 at 23:58:44.029     
------------------------------------------------------------------------
 total:
 * wall-time:     0 d,  0 h,  0 min,  0.207 sec
 *  cpu-time:     0 d,  0 h,  0 min,  0.079 sec
 * ratio c/w:     0.384 speedup
 SCF:
 * wall-time:     0 d,  0 h,  0 min,  0.050 sec
 *  cpu-time:     0 d,  0 h,  0 min,  0.050 sec
 * ratio c/w:     1.000 speedup


-------------------------   --------------------
FINAL SINGLE POINT ENERGY         0.000000000000
-------------------------   --------------------

------------------------------------------------------------------------------
                         ORCA GEOMETRY RELAXATION STEP
------------------------------------------------------------------------------

Reading the OPT-File                    .... done
Getting information on internals        .... done
Copying old internal coords+grads       .... done
Making the new internal coordinates     .... (new redundants).... done
Validating the new internal coordinates .... (new redundants).... done
Calculating the B-matrix                .... done
Calculating the G,G- and P matrices     .... done
Transforming gradient to internals      .... done
Projecting the internal gradient        .... done
Number of atoms                         ....  24
Number of internal coordinates          .... 122
Current Energy                          ....     0.000000000 Eh
Current gradient norm                   ....     0.068064028 Eh/bohr
Maximum allowed component of the step   ....  0.300
Current trust radius                    ....  0.300
Updating the Hessian (BFGS)             .... done
Forming the augmented Hessian           .... done
Diagonalizing the augmented Hessian     .... done
Last element of RFO vector              ....  0.991510362
Lowest eigenvalues of augmented Hessian:
 -0.005403439  0.014092258  0.014092315  0.014452292  0.014452391
Length of the computed step             ....  0.131141036
The final length of the internal step   ....  0.131141036
Converting the step to cartesian space:
 Initial RMS(Int)=    0.0118729516
Transforming coordinates:
 Iter   0:  RMS(Cart)=    0.0273352788 RMS(Int)=    0.8045668706
 Iter   1:  RMS(Cart)=    0.0003546381 RMS(Int)=    0.0001131988
 Iter   2:  RMS(Cart)=    0.0000028529 RMS(Int)=    0.0000018613
 Iter   3:  RMS(Cart)=    0.0000000835 RMS(Int)=    0.0000000287
done
Storing new coordinates                 .... done

                                .--------------------.
          ----------------------|Geometry convergence|-------------------------
          Item                value                   Tolerance       Converged
          ---------------------------------------------------------------------
          Energy change       0.0000000000            0.0000050000      YES
          RMS gradient        0.0037920942            0.0001000000      NO
          MAX gradient        0.0128923946            0.0003000000      NO
          RMS step            0.0118729516            0.0020000000      NO
          MAX step            0.0338440748            0.0040000000      NO
          ........................................................
          Max(Bonds)      0.0178      Max(Angles)    1.94
          Max(Dihed)        0.00      Max(Improp)    0.00
          ---------------------------------------------------------------------

The optimization has not yet converged - more geometry cycles are needed


    ---------------------------------------------------------------------------
                         Redundant Internal Coordinates
                            (Angstroem and degrees)

        Definition                    Value    dE/dq     Step     New-Value
    ----------------------------------------------------------------------------
     1. B(C   1,C   0)                1.3777  0.007955 -0.0101    1.3676   
     2. B(S   2,C   1)                1.6941 -0.008584  0.0115    1.7056   
     3. B(C   3,S   2)                1.7037 -0.012892  0.0178    1.7215   
     4. B(C   4,C   3)                1.4462  0.004302 -0.0089    1.4373   
     5. B(C   5,C   4)                1.4017 -0.002996  0.0035    1.4052   
     6. B(N   6,C   5)                1.3200  0.006894 -0.0108    1.3092   
     7. B(C   7,N   6)                1.3346 -0.000667 -0.0012    1.3334   
     8. B(C   8,C   7)                1.4462  0.004302 -0.0089    1.4373   
     9. B(C   9,C   8)                1.3839  0.005135 -0.0064    1.3775   
    10. B(C  10,C   9)                1.3952 -0.003285  0.0034    1.3986   
    11. B(C  11,C  10)                1.3777  0.007956 -0.0101    1.3676   
    12. B(S  12,C  11)                1.6941 -0.008584  0.0115    1.7056   
    13. B(S  12,C   8)                1.7037 -0.012892  0.0178    1.7215   
    14. B(C  13,C   7)                1.4017 -0.002997  0.0035    1.4052   
    15. B(N  14,C   4)                1.3346 -0.000667 -0.0012    1.3334   
    16. B(N  14,C  13)                1.3200  0.006894 -0.0108    1.3092   
    17. B(C  15,C   3)                1.3839  0.005135 -0.0064    1.3775   
    18. B(C  15,C   0)                1.3952 -0.003285  0.0034    1.3986   
    19. B(H  16,C   0)                1.0767  0.000687 -0.0017    1.0750   
    20. B(H  17,C   1)                1.0703 -0.000088 -0.0006    1.0697   
    21. B(H  18,C   5)                1.0781 -0.001709  0.0030    1.0811   
    22. B(H  19,C   9)                1.0753  0.000956 -0.0023    1.0731   
    23. B(H  20,C  10)                1.0767  0.000687 -0.0017    1.0750   
    24. B(H  21,C  11)                1.0703 -0.000088 -0.0006    1.0697   
    25. B(H  22,C  13)                1.0781 -0.001709  0.0030    1.0811   
    26. B(H  23,C  15)                1.0753  0.000956 -0.0023    1.0731   
    27. A(C  15,C   0,H  16)          123.43 -0.001410    0.34    123.78   
    28. A(C   1,C   0,H  16)          123.35 -0.000129    0.06    123.40   
    29. A(C   1,C   0,C  15)          113.22  0.001538   -0.40    112.82   
    30. A(S   2,C   1,H  17)          124.09  0.009195   -1.91    122.17   
    31. A(C   0,C   1,S   2)          110.29 -0.007891    1.50    111.79   
    32. A(C   0,C   1,H  17)          125.63 -0.001304    0.41    126.04   
    33. A(C   1,S   2,C   3)           93.67  0.010594   -1.94     91.73   
    34. A(C   4,C   3,C  15)          125.45 -0.001742    0.31    125.76   
    35. A(S   2,C   3,C  15)          109.86 -0.005100    1.04    110.90   
    36. A(S   2,C   3,C   4)          124.69  0.006842   -1.36    123.34   
    37. A(C   3,C   4,N  14)          117.99  0.003313   -0.73    117.26   
    38. A(C   5,C   4,N  14)          120.07 -0.001056    0.27    120.34   
    39. A(C   3,C   4,C   5)          121.94 -0.002257    0.46    122.39   
    40. A(C   4,C   5,H  18)          121.53  0.000812   -0.09    121.45   
    41. A(C   4,C   5,N   6)          120.82 -0.005152    1.05    121.87   
    42. A(N   6,C   5,H  18)          117.65  0.004341   -0.97    116.68   
    43. A(C   5,N   6,C   7)          119.11  0.006208   -1.32    117.78   
    44. A(N   6,C   7,C  13)          120.07 -0.001056    0.27    120.34   
    45. A(N   6,C   7,C   8)          117.99  0.003313   -0.73    117.26   
    46. A(C   8,C   7,C  13)          121.94 -0.002257    0.46    122.39   
    47. A(C   9,C   8,S  12)          109.86 -0.005100    1.04    110.90   
    48. A(C   7,C   8,C   9)          125.45 -0.001742    0.31    125.76   
    49. A(C   7,C   8,S  12)          124.69  0.006842   -1.36    123.34   
    50. A(C   8,C   9,H  19)          123.56  0.002141   -0.48    123.08   
    51. A(C   8,C   9,C  10)          112.96  0.000858   -0.21    112.76   
    52. A(C  10,C   9,H  19)          123.47 -0.002999    0.69    124.16   
    53. A(C   9,C  10,C  11)          113.22  0.001538   -0.40    112.82   
    54. A(C  11,C  10,H  20)          123.35 -0.000128    0.06    123.40   
    55. A(C   9,C  10,H  20)          123.43 -0.001410    0.34    123.78   
    56. A(C  10,C  11,S  12)          110.29 -0.007891    1.50    111.79   
    57. A(S  12,C  11,H  21)          124.09  0.009195   -1.91    122.17   
    58. A(C  10,C  11,H  21)          125.63 -0.001304    0.41    126.04   
    59. A(C   8,S  12,C  11)           93.67  0.010594   -1.94     91.73   
    60. A(C   7,C  13,N  14)          120.82 -0.005152    1.05    121.87   
    61. A(N  14,C  13,H  22)          117.65  0.004340   -0.97    116.68   
    62. A(C   7,C  13,H  22)          121.53  0.000812   -0.09    121.45   
    63. A(C   4,N  14,C  13)          119.11  0.006208   -1.32    117.78   
    64. A(C   0,C  15,C   3)          112.96  0.000858   -0.21    112.76   
    65. A(C   3,C  15,H  23)          123.56  0.002140   -0.48    123.08   
    66. A(C   0,C  15,H  23)          123.47 -0.002999    0.69    124.16   
    67. D(S   2,C   1,C   0,C  15)     -0.00 -0.000000    0.00      0.00   
    68. D(H  17,C   1,C   0,C  15)    180.00 -0.000000    0.00    180.00   
    69. D(S   2,C   1,C   0,H  16)    180.00 -0.000000    0.00    180.00   
    70. D(H  17,C   1,C   0,H  16)     -0.00 -0.000000    0.00     -0.00   
    71. D(C   3,S   2,C   1,C   0)     -0.00  0.000000    0.00      0.00   
    72. D(C   3,S   2,C   1,H  17)   -180.00  0.000000   -0.00   -180.00   
    73. D(C  15,C   3,S   2,C   1)      0.00  0.000000   -0.00     -0.00   
    74. D(C   4,C   3,S   2,C   1)    180.00 -0.000000    0.00    180.00   
    75. D(N  14,C   4,C   3,C  15)      0.00  0.000000   -0.00      0.00   
    76. D(N  14,C   4,C   3,S   2)   -180.00  0.000000   -0.00   -180.00   
    77. D(C   5,C   4,C   3,S   2)      0.00  0.000000   -0.00      0.00   
    78. D(C   5,C   4,C   3,C  15)   -180.00 -0.000000    0.00   -180.00   
    79. D(H  18,C   5,C   4,C   3)      0.00  0.000000   -0.00      0.00   
    80. D(N   6,C   5,C   4,C   3)   -180.00  0.000000   -0.00   -180.00   
    81. D(N   6,C   5,C   4,N  14)      0.00 -0.000000    0.00      0.00   
    82. D(H  18,C   5,C   4,N  14)   -180.00  0.000000   -0.00   -180.00   
    83. D(C   7,N   6,C   5,H  18)   -180.00  0.000000   -0.00   -180.00   
    84. D(C   7,N   6,C   5,C   4)      0.00  0.000000   -0.00      0.00   
    85. D(C  13,C   7,N   6,C   5)     -0.00 -0.000000    0.00     -0.00   
    86. D(C   8,C   7,N   6,C   5)    180.00 -0.000000    0.00    180.00   
    87. D(S  12,C   8,C   7,C  13)      0.00  0.000000   -0.00      0.00   
    88. D(S  12,C   8,C   7,N   6)   -180.00  0.000000   -0.00   -180.00   
    89. D(C   9,C   8,C   7,C  13)   -180.00 -0.000000    0.00   -180.00   
    90. D(C   9,C   8,C   7,N   6)      0.00 -0.000000    0.00      0.00   
    91. D(H  19,C   9,C   8,S  12)    180.00 -0.000000    0.00    180.00   
    92. D(H  19,C   9,C   8,C   7)      0.00  0.000000   -0.00      0.00   
    93. D(C  10,C   9,C   8,S  12)     -0.00 -0.000000    0.00     -0.00   
    94. D(C  10,C   9,C   8,C   7)   -180.00  0.000000   -0.00   -180.00   
    95. D(H  20,C  10,C   9,C   8)   -180.00  0.000000   -0.00   -180.00   
    96. D(C  11,C  10,C   9,H  19)   -180.00  0.000000   -0.00   -180.00   
    97. D(C  11,C  10,C   9,C   8)      0.00  0.000000   -0.00     -0.00   
    98. D(H  20,C  10,C   9,H  19)      0.00  0.000000   -0.00      0.00   
    99. D(H  21,C  11,C  10,H  20)     -0.00 -0.000000    0.00     -0.00   
   100. D(H  21,C  11,C  10,C   9)    180.00 -0.000000    0.00    180.00   
   101. D(S  12,C  11,C  10,H  20)    180.00 -0.000000    0.00    180.00   
   102. D(S  12,C  11,C  10,C   9)     -0.00 -0.000000    0.00      0.00   
   103. D(C   8,S  12,C  11,H  21)   -180.00  0.000000   -0.00   -180.00   
   104. D(C   8,S  12,C  11,C  10)     -0.00  0.000000   -0.00     -0.00   
   105. D(C  11,S  12,C   8,C   9)      0.00  0.000000   -0.00      0.00   
   106. D(C  11,S  12,C   8,C   7)    180.00 -0.000000    0.00    180.00   
   107. D(H  22,C  13,C   7,C   8)      0.00  0.000000   -0.00      0.00   
   108. D(H  22,C  13,C   7,N   6)   -180.00  0.000000   -0.00   -180.00   
   109. D(N  14,C  13,C   7,C   8)    180.00 -0.000000    0.00    180.00   
   110. D(N  14,C  13,C   7,N   6)     -0.00 -0.000000    0.00      0.00   
   111. D(C   4,N  14,C  13,H  22)   -180.00  0.000000   -0.00   -180.00   
   112. D(C   4,N  14,C  13,C   7)      0.00  0.000000   -0.00      0.00   
   113. D(C  13,N  14,C   4,C   5)     -0.00 -0.000000    0.00     -0.00   
   114. D(C  13,N  14,C   4,C   3)    180.00 -0.000000    0.00    180.00   
   115. D(H  23,C  15,C   3,C   4)      0.00  0.000000   -0.00      0.00   
   116. D(C   0,C  15,C   3,C   4)   -180.00 -0.000000   -0.00   -180.00   
   117. D(C   0,C  15,C   3,S   2)     -0.00 -0.000000    0.00      0.00   
   118. D(H  23,C  15,C   0,H  16)      0.00  0.000000   -0.00      0.00   
   119. D(H  23,C  15,C   0,C   1)   -180.00  0.000000   -0.00   -180.00   
   120. D(H  23,C  15,C   3,S   2)    180.00 -0.000000    0.00    180.00   
   121. D(C   3,C  15,C   0,H  16)   -180.00  0.000000   -0.00   -180.00   
   122. D(C   3,C  15,C   0,C   1)      0.00  0.000000   -0.00     -0.00   
    ----------------------------------------------------------------------------

         *************************************************************
         *                GEOMETRY OPTIMIZATION CYCLE   3            *
         *************************************************************
      -----------------------------------------------------------      
     |                   =====================                   |     
     |                           x T B                           |     
     |                   =====================                   |     
     |                         S. Grimme                         |     
     |          Mulliken Center for Theoretical Chemistry        |     
     |                    University of Bonn                     |     
      -----------------------------------------------------------      

   * xtb version 6.2.3 (830e466) compiled by 'ehlert@majestix' on 2020-03-16

   xtb is free software: you can redistribute it and/or modify it under
[...]
   102. D(S  12,C  11,C  10,C   9)      0.00  0.000000   -0.00     -0.00   
   103. D(C   8,S  12,C  11,H  21)    180.00 -0.000000    0.00    180.00   
   104. D(C   8,S  12,C  11,C  10)     -0.00 -0.000000    0.00      0.00   
   105. D(C  11,S  12,C   8,C   9)      0.00  0.000000   -0.00     -0.00   
   106. D(C  11,S  12,C   8,C   7)   -180.00  0.000000   -0.00   -180.00   
   107. D(H  22,C  13,C   7,C   8)      0.00  0.000000   -0.00     -0.00   
   108. D(H  22,C  13,C   7,N   6)   -180.00  0.000000    0.00   -180.00   
   109. D(N  14,C  13,C   7,C   8)   -180.00 -0.000000    0.00   -180.00   
   110. D(N  14,C  13,C   7,N   6)     -0.00 -0.000000    0.00      0.00   
   111. D(C   4,N  14,C  13,H  22)    180.00 -0.000000    0.00    180.00   
   112. D(C   4,N  14,C  13,C   7)      0.00  0.000000   -0.00     -0.00   
   113. D(C  13,N  14,C   4,C   5)      0.00  0.000000   -0.00     -0.00   
   114. D(C  13,N  14,C   4,C   3)    180.00 -0.000000    0.00    180.00   
   115. D(H  23,C  15,C   3,C   4)     -0.00 -0.000000    0.00      0.00   
   116. D(C   0,C  15,C   3,C   4)    180.00 -0.000000    0.00    180.00   
   117. D(C   0,C  15,C   3,S   2)     -0.00 -0.000000    0.00      0.00   
   118. D(H  23,C  15,C   0,H  16)     -0.00 -0.000000    0.00      0.00   
   119. D(H  23,C  15,C   0,C   1)    180.00 -0.000000    0.00    180.00   
   120. D(H  23,C  15,C   3,S   2)    180.00 -0.000000    0.00    180.00   
   121. D(C   3,C  15,C   0,H  16)   -180.00  0.000000   -0.00   -180.00   
   122. D(C   3,C  15,C   0,C   1)     -0.00 -0.000000    0.00      0.00   
    ----------------------------------------------------------------------------
                 *******************************************************
                 *** FINAL ENERGY EVALUATION AT THE STATIONARY POINT ***
                 ***               (AFTER    8 CYCLES)               ***
                 *******************************************************
      -----------------------------------------------------------      
     |                   =====================                   |     
     |                           x T B                           |     
     |                   =====================                   |     
     |                         S. Grimme                         |     
     |          Mulliken Center for Theoretical Chemistry        |     
     |                    University of Bonn                     |     
      -----------------------------------------------------------      

   * xtb version 6.2.3 (830e466) compiled by 'ehlert@majestix' on 2020-03-16

   xtb is free software: you can redistribute it and/or modify it under
   the terms of the GNU Lesser General Public License as published by
   the Free Software Foundation, either version 3 of the License, or
   (at your option) any later version.
   
   xtb is distributed in the hope that it will be useful,
   but WITHOUT ANY WARRANTY; without even the implied warranty of
   MERCHANTABILITY or FITNESS FOR A PARTICULAR PURPOSE.  See the
   GNU Lesser General Public License for more details.
   
   Cite this work as:
   * S. Grimme, C. Bannwarth, P. Shushkov, J. Chem. Theory Comput., 2017,
     13, 1989-2009. DOI: 10.1021/acs.jctc.7b00118
   * C. Bannwarth, S. Ehlert and S. Grimme., J. Chem. Theory Comput., 2019,
     15, 1652-1671. DOI: 10.1021/acs.jctc.8b01176
   * P. Pracht, E. Caldeweyher, S. Ehlert, S. Grimme, ChemRxiv, 2019, preprint.
     DOI: 10.26434/chemrxiv.8326202.v1
   
   for DFT-D4:
   * E. Caldeweyher, C. Bannwarth and S. Grimme, J. Chem. Phys., 2017,
     147, 034112. DOI: 10.1063/1.4993215
   * E. Caldeweyher, S. Ehlert, A. Hansen, H. Neugebauer, S. Spicher,
     C. Bannwarth and S. Grimme, J. Chem. Phys., 2019, 150, 154122.
     DOI: 10.1063/1.5090222
   
   for sTDA-xTB:
   * S. Grimme and C. Bannwarth, J. Chem. Phys., 2016, 145, 054103.
     DOI: 10.1063/1.4959605
   
   in the mass-spec context:
   * V. Asgeirsson, C. Bauer and S. Grimme, Chem. Sci., 2017, 8, 4879.
     DOI: 10.1039/c7sc00601b
   
   for metadynamics refer to:
   * S. Grimme, J. Chem. Theory Comput., 2019, 155, 2847-2862
     DOI: 10.1021/acs.jctc.9b00143
   
   with help from (in alphabetical order)
   C. Bannwarth, F. Bohle, G. Brandenburg, E. Caldeweyher, M. Checinski,
   S. Dohm, S. Ehlert, S. Ehrlich, F. März, H. Neugebauer, J. Pisarek,
   P. Pracht, P. Shushkov, and S. Spicher.
   
 * started run on 2026/01/18 at 23:58:53.408     

           -------------------------------------------------
          |                Calculation Setup                |
           -------------------------------------------------

          program call               : /appl/orca_4.2.1/orca_4_2_1_linux_x86-64_openmpi314/xtb pre_opt_XTB.xyz --grad -c 0 -u 0 -P 1 --namespace pre_opt
          hostname                   : cnode10
          calculation namespace      : pre_opt
          coordinate file            : pre_opt_XTB.xyz
          omp threads                :                     1
          number of atoms            :                    24
          number of electrons        :                    78
          charge                     :                     0
          spin                       :                   0.0
          first test random number   :      0.24985621787504

########################################################################
[WARNING] Please study the warnings concerning your input carefully
-2- prog_main: XTBPATH is not set, using XTBHOME instead
-1- prog_main: XTBHOME is not set, using HOME instead
########################################################################
           ------------------------------------------------- 
          |                 G F N 2 - x T B                 |
          | Geometry, Frequencies, Noncovalent interactions |
          |            JCTC 2019 parametrisation            |
           ------------------------------------------------- 
             k(s)              :                1.8500
             k(p)              :                2.2300
             k(d)              :                2.2300
             k(f)              :                2.0000
             kEN (H0ij)        :               -2.0000
             D4 a1             :                0.5200
             D4 a2             :                5.0000
             D4 s6             :                1.0000
             D4 s8             :                2.7000
             D4 s9             :                5.0000
             alphaj            :                2.0000

  Z AO/shell   Hii/eV     exponent
  1     Wed Apr 25 08:07:45 CEST 2018   EN: 2.200 GM2: 0.406  GM3: 0.0800  RAES: 1.40
     1s    -10.707211    1.230000
  6     Wed Apr 25 08:07:45 CEST 2018   EN: 2.550 GM2: 0.538  GM3: 0.1500  RAES: 3.00
     2s    -13.970922    2.096432
     2p    -10.063292    1.800000
  7     Wed Apr 25 08:07:45 CEST 2018   EN: 3.040 GM2: 0.461  GM3:-0.0640  RAES: 1.90
     2s    -16.686243    2.339881
     2p    -12.523956    2.014332
 16     Tue Apr 24 11:44:34 CEST 2018   EN: 2.580 GM2: 0.340  GM3:-0.0502  RAES: 3.10
     3s    -20.029654    1.981333
     3p    -11.377694    2.025643
     3d     -0.420282    1.702555

           ------------------------------------------------- 
          |        Self-Consistent Charge Iterations        |
           ------------------------------------------------- 

          ...................................................
          :                      SETUP                      :
          :.................................................:
          :  # basis functions                  84          :
          :  # atomic orbitals                  82          :
          :  # shells                           42          :
          :  # electrons                        78          :
          :  max. iterations                   250          :
          :  Hamiltonian                  GFN2-xTB          :
          :  restarted?                      false          :
          :  GBSA solvation                  false          :
          :  PC potential                    false          :
          :  electronic temp.          300.0000000     K    :
          :  accuracy                    1.0000000          :
          :  -> integral cutoff          0.2500000E+02      :
          :  -> integral neglect         0.1000000E-07      :
          :  -> SCF convergence          0.1000000E-05 Eh   :
          :  -> wf. convergence          0.1000000E-03 e    :
          :  Broyden damping             0.4000000          :
          ...................................................

 iter      E             dE          RMSdq      gap      omega  full diag
   1    -42.6846461 -0.426846E+02  0.438E+00    1.84       0.0  T
   2    -42.7142494 -0.296034E-01  0.261E+00    1.97       1.0  T
   3    -42.7005154  0.137340E-01  0.134E+00    1.93       1.0  T
   4    -42.7185422 -0.180268E-01  0.535E-01    1.73       1.0  T
   5    -42.7231245 -0.458221E-02  0.174E-01    1.76       1.0  T
   6    -42.7232950 -0.170521E-03  0.457E-02    1.75       1.0  T
   7    -42.7233133 -0.183451E-04  0.219E-02    1.75       1.0  T
   8    -42.7233188 -0.542944E-05  0.988E-03    1.75       2.1  T
   9    -42.7233189 -0.158607E-06  0.515E-03    1.75       4.0  T
  10    -42.7233190 -0.132230E-06  0.145E-03    1.75      14.1  T
  11    -42.7233190 -0.670752E-10  0.805E-04    1.75      25.4  T
  12    -42.7233190 -0.557972E-08  0.260E-04    1.75      78.6  T

   *** convergence criteria satisfied after 12 iterations ***

         #    Occupation            Energy/Eh            Energy/eV
      -------------------------------------------------------------
         1        2.0000           -0.7373978             -20.0656
       ...           ...                  ...                  ...
        33        2.0000           -0.4449439             -12.1075
        34        2.0000           -0.4173712             -11.3572
        35        2.0000           -0.4071193             -11.0783
        36        2.0000           -0.4046723             -11.0117
        37        2.0000           -0.4046360             -11.0107
        38        2.0000           -0.3794870             -10.3264
        39        2.0000           -0.3580359              -9.7427 (HOMO)
        40                         -0.2937490              -7.9933 (LUMO)
        41                         -0.2645191              -7.1979
        42                         -0.2536261              -6.9015
        43                         -0.2117590              -5.7623
        44                         -0.2096010              -5.7035
       ...                                ...                  ...
        82                          0.6902756              18.7834
      -------------------------------------------------------------
                  HL-Gap            0.0642869 Eh            1.7493 eV
             Fermi-level           -0.3258925 Eh           -8.8680 eV

 SCC (total)                   0 d,  0 h,  0 min,  0.061 sec
 SCC setup                      ...        0 min,  0.000 sec (  0.709%)
 Dispersion                     ...        0 min,  0.000 sec (  0.538%)
 integral evaluation            ...        0 min,  0.023 sec ( 38.081%)
 zeroth order Hamiltonian       ...        0 min,  0.000 sec (  0.474%)
 iterations                     ...        0 min,  0.019 sec ( 31.165%)
 molecular gradient             ...        0 min,  0.018 sec ( 28.746%)
 printout                       ...        0 min,  0.000 sec (  0.201%)

         :::::::::::::::::::::::::::::::::::::::::::::::::::::
         ::                     SUMMARY                     ::
         :::::::::::::::::::::::::::::::::::::::::::::::::::::
         :: total energy             -42.077833385306 Eh    ::
         :: gradient norm              0.000445793590 Eh/a0 ::
         :: HOMO-LUMO gap              1.749336462021 eV    ::
         ::.................................................::
         :: SCC energy               -42.723319047297 Eh    ::
         :: -> isotropic ES            0.015077970599 Eh    ::
         :: -> anisotropic ES          0.001837111571 Eh    ::
         :: -> anisotropic XC          0.030993642624 Eh    ::
         :: -> dispersion             -0.028498304320 Eh    ::
         :: repulsion energy           0.645798142734 Eh    ::
         :: add. restraining           0.000000000000 Eh    ::
         :::::::::::::::::::::::::::::::::::::::::::::::::::::

           -------------------------------------------------
          |                Property Printout                |
           -------------------------------------------------

    * Orbital Energies and Occupations

         #    Occupation            Energy/Eh            Energy/eV
      -------------------------------------------------------------
         1        2.0000           -0.7373978             -20.0656
       ...           ...                  ...                  ...
        27        2.0000           -0.4713485             -12.8260
        28        2.0000           -0.4677452             -12.7280
        29        2.0000           -0.4653518             -12.6629
        30        2.0000           -0.4647272             -12.6459
        31        2.0000           -0.4561895             -12.4135
        32        2.0000           -0.4487655             -12.2115
        33        2.0000           -0.4449439             -12.1075
        34        2.0000           -0.4173712             -11.3572
        35        2.0000           -0.4071193             -11.0783
        36        2.0000           -0.4046723             -11.0117
        37        2.0000           -0.4046360             -11.0107
        38        2.0000           -0.3794870             -10.3264
        39        2.0000           -0.3580359              -9.7427 (HOMO)
        40                         -0.2937490              -7.9933 (LUMO)
        41                         -0.2645191              -7.1979
        42                         -0.2536261              -6.9015
        43                         -0.2117590              -5.7623
        44                         -0.2096010              -5.7035
        45                         -0.2067311              -5.6254
        46                         -0.1800447              -4.8993
        47                         -0.1575778              -4.2879
        48                         -0.1265248              -3.4429
        49                         -0.1242416              -3.3808
        50                         -0.1066581              -2.9023
       ...                                ...                  ...
        82                          0.6902756              18.7834
      -------------------------------------------------------------
                  HL-Gap            0.0642869 Eh            1.7493 eV
             Fermi-level           -0.3258925 Eh           -8.8680 eV

     #   Z        covCN         q      C6AA      α(0)
     1   6 C      3.109    -0.041    28.869     8.803
     2   6 C      2.942    -0.016    28.402     8.741
     3  16 S      2.321    -0.025   142.079    20.062
     4   6 C      3.000     0.014    27.691     8.632
     5   6 C      2.982     0.080    26.202     8.397
     6   6 C      2.903     0.050    26.867     8.499
     7   7 N      1.847    -0.223    26.710     7.660
     8   6 C      2.982     0.080    26.202     8.397
     9   6 C      3.000     0.014    27.691     8.632
    10   6 C      3.112    -0.039    28.813     8.794
    11   6 C      3.109    -0.041    28.869     8.803
    12   6 C      2.942    -0.016    28.402     8.741
    13  16 S      2.321    -0.025   142.079    20.062
    14   6 C      2.903     0.050    26.867     8.499
    15   7 N      1.847    -0.223    26.710     7.660
    16   6 C      3.112    -0.039    28.813     8.794
    17   1 H      0.926     0.043     2.406     2.426
    18   1 H      0.926     0.049     2.330     2.387
    19   1 H      0.925     0.046     2.375     2.410
    20   1 H      0.926     0.061     2.189     2.313
    21   1 H      0.926     0.043     2.406     2.426
    22   1 H      0.926     0.049     2.330     2.387
    23   1 H      0.925     0.046     2.375     2.410
    24   1 H      0.926     0.061     2.189     2.313

 Mol. C6AA /au·bohr⁶  :      11999.284149
 Mol. C8AA /au·bohr⁸  :     357034.841353
 Mol. α(0) /au        :        178.243479


Wiberg/Mayer (AO) data.
largest (>0.10) Wiberg bond orders for each atom
          total WBO             WBO to atom ...
     1  C   3.986        C    2 1.596    C   16 1.307    H   17 0.964
     2  C   3.931        C    1 1.596    S    3 1.208    H   18 0.970    C    4 0.103
     3  S   2.625        C    2 1.208    C    4 1.136
     4  C   3.948        C   16 1.515    S    3 1.136    C    5 1.121    C    2 0.103
     5  C   3.969        N   15 1.341    C    6 1.314    C    4 1.121
     6  C   3.980        N    7 1.496    C    5 1.314    H   19 0.956    C   14 0.104
     7  N   3.061        C    6 1.496    C    8 1.341
     8  C   3.969        N    7 1.341    C   14 1.314    C    9 1.121
     9  C   3.948        C   10 1.515    S   13 1.136    C    8 1.121    C   12 0.103
    10  C   3.976        C    9 1.515    C   11 1.307    H   20 0.961
    11  C   3.986        C   12 1.596    C   10 1.307    H   21 0.964
    12  C   3.931        C   11 1.596    S   13 1.208    H   22 0.970    C    9 0.103
    13  S   2.625        C   12 1.208    C    9 1.136
    14  C   3.980        N   15 1.496    C    8 1.314    H   23 0.956    C    6 0.104
    15  N   3.061        C   14 1.496    C    5 1.341
    16  C   3.976        C    4 1.515    C    1 1.307    H   24 0.961
    17  H   0.998        C    1 0.964
    18  H   0.997        C    2 0.970
    19  H   0.997        C    6 0.956
    20  H   0.996        C   10 0.961
    21  H   0.998        C   11 0.964
    22  H   0.997        C   12 0.970
    23  H   0.997        C   14 0.956
    24  H   0.996        C   16 0.961

molecular dipole:
                 x           y           z       tot (Debye)
 q only:        0.000      -0.000      -0.000
   full:        0.000      -0.000      -0.000       0.000
molecular quadrupole (traceless):
                xx          xy          yy          xz          yz          zz
 q only:       11.956       0.492      -6.942       1.238      -1.059      -5.014
  q+dip:       18.068       1.629     -10.370      -0.056      -1.621      -7.698
   full:       16.651       1.110      -7.271       0.373       1.225      -9.379


           -------------------------------------------------
          | TOTAL ENERGY              -42.077833385306 Eh   |
          | GRADIENT NORM               0.000445793590 Eh/α |
          | HOMO-LUMO GAP               1.749336462021 eV   |
           -------------------------------------------------

------------------------------------------------------------------------
 * finished run on 2026/01/18 at 23:58:53.836     
------------------------------------------------------------------------
 total:
 * wall-time:     0 d,  0 h,  0 min,  0.427 sec
 *  cpu-time:     0 d,  0 h,  0 min,  0.093 sec
 * ratio c/w:     0.218 speedup
 SCF:
 * wall-time:     0 d,  0 h,  0 min,  0.061 sec
 *  cpu-time:     0 d,  0 h,  0 min,  0.061 sec
 * ratio c/w:     1.000 speedup


-------------------------   --------------------
FINAL SINGLE POINT ENERGY         0.000000000000
-------------------------   --------------------

                                *** OPTIMIZATION RUN DONE ***

Timings for individual modules:

Sum of individual times         ...        8.982 sec (=   0.150 min)
Geometry relaxation             ...        2.959 sec (=   0.049 min)  32.9 %
XTB module                      ...        6.023 sec (=   0.100 min)  67.1 %
                             ****ORCA TERMINATED NORMALLY****
TOTAL RUN TIME: 0 days 0 hours 0 minutes 12 seconds 736 msec
