 Entering Gaussian System, Link 0=g16
 Initial command:
 /appl/Gaussian16/AVX_revB01/g16/l1.exe "/home/junhkim/WORK/Review_DD/TADF-Design/data/td_dft/results/mol_661/Gau-2702865.inp" -scrdir="/home/junhkim/WORK/Review_DD/TADF-Design/data/td_dft/results/mol_661/"
 Entering Link 1 = /appl/Gaussian16/AVX_revB01/g16/l1.exe PID=   2702867.
  
 Copyright (c) 1988-2017, Gaussian, Inc.  All Rights Reserved.
  
 This is part of the Gaussian(R) 16 program.  It is based on
 the Gaussian(R) 09 system (copyright 2009, Gaussian, Inc.),
 the Gaussian(R) 03 system (copyright 2003, Gaussian, Inc.),
 the Gaussian(R) 98 system (copyright 1998, Gaussian, Inc.),
 the Gaussian(R) 94 system (copyright 1995, Gaussian, Inc.),
 the Gaussian 92(TM) system (copyright 1992, Gaussian, Inc.),
 the Gaussian 90(TM) system (copyright 1990, Gaussian, Inc.),
 the Gaussian 88(TM) system (copyright 1988, Gaussian, Inc.),
 the Gaussian 86(TM) system (copyright 1986, Carnegie Mellon
 University), and the Gaussian 82(TM) system (copyright 1983,
 Carnegie Mellon University). Gaussian is a federally registered
 trademark of Gaussian, Inc.
  
 This software contains proprietary and confidential information,
 including trade secrets, belonging to Gaussian, Inc.
  
 This software is provided under written license and may be
 used, copied, transmitted, or stored only in accord with that
 written license.
  
 The following legend is applicable only to US Government
 contracts under FAR:
  
                    RESTRICTED RIGHTS LEGEND
  
 Use, reproduction and disclosure by the US Government is
 subject to restrictions as set forth in subparagraphs (a)
 and (c) of the Commercial Computer Software - Restricted
 Rights clause in FAR 52.227-19.
  
 Gaussian, Inc.
 340 Quinnipiac St., Bldg. 40, Wallingford CT 06492
  
  
 ---------------------------------------------------------------
 Warning -- This program may not be used in any manner that
 competes with the business of Gaussian, Inc. or will provide
 assistance to any competitor of Gaussian, Inc.  The licensee
 of this program is prohibited from giving any competitor of
 Gaussian, Inc. access to this program.  By using this program,
 the user acknowledges that Gaussian, Inc. is engaged in the
 business of creating and licensing software in the field of
 computational chemistry and represents and warrants to the
 licensee that it is not a competitor of Gaussian, Inc. and that
 it will not use this program in any manner prohibited above.
 ---------------------------------------------------------------
  

 Cite this work as:
 Gaussian 16, Revision B.01,
 M. J. Frisch, G. W. Trucks, H. B. Schlegel, G. E. Scuseria, 
 M. A. Robb, J. R. Cheeseman, G. Scalmani, V. Barone, 
 G. A. Petersson, H. Nakatsuji, X. Li, M. Caricato, A. V. Marenich, 
 J. Bloino, B. G. Janesko, R. Gomperts, B. Mennucci, H. P. Hratchian, 
 J. V. Ortiz, A. F. Izmaylov, J. L. Sonnenberg, D. Williams-Young, 
 F. Ding, F. Lipparini, F. Egidi, J. Goings, B. Peng, A. Petrone, 
 T. Henderson, D. Ranasinghe, V. G. Zakrzewski, J. Gao, N. Rega, 
 G. Zheng, W. Liang, M. Hada, M. Ehara, K. Toyota, R. Fukuda, 
 J. Hasegawa, M. Ishida, T. Nakajima, Y. Honda, O. Kitao, H. Nakai, 
 T. Vreven, K. Throssell, J. A. Montgomery, Jr., J. E. Peralta, 
 F. Ogliaro, M. J. Bearpark, J. J. Heyd, E. N. Brothers, K. N. Kudin, 
 V. N. Staroverov, T. A. Keith, R. Kobayashi, J. Normand, 
 K. Raghavachari, A. P. Rendell, J. C. Burant, S. S. Iyengar, 
 J. Tomasi, M. Cossi, J. M. Millam, M. Klene, C. Adamo, R. Cammi, 
 J. W. Ochterski, R. L. Martin, K. Morokuma, O. Farkas, 
 J. B. Foresman, and D. J. Fox, Gaussian, Inc., Wallingford CT, 2016.
 
 ******************************************
 Gaussian 16:  ES64L-G16RevB.01 20-Dec-2017
                18-Jan-2026 
 ******************************************
 %OldChk=/home/junhkim/WORK/Review_DD/TADF-Design/data/td_dft/results/mol_661/opt
 .chk
 %nprocshared=16
 Will use up to   16 processors via shared memory.
 %mem=60GB
 Copying data from "/home/junhkim/WORK/Review_DD/TADF-Design/data/td_dft/results/mol_661/opt.chk" to current chk file "/home/junhkim/WORK/Review_DD/TADF-Design/data/td_dft/results/mol_661/Gau-2702867.chk"
 IOpt=  2 FromEx=T IUOpen= 4 IOptOp= 5 NList=   0 IFRang= 0 IUIn= 4 IUOut= 2.
 -----------------------------------------------------------------
 # b3lyp/6-31g* TD=(Nstates=1,50-50) Geom=Check Guess=Read SCF=XQC
 -----------------------------------------------------------------
 1/29=2,38=1,172=1/1;
 2/12=2,40=1/2;
 3/5=1,6=6,7=1,11=9,14=-4,25=1,30=1,74=-5,116=-2/1,2,3,8;
 4/5=1/1;
 5/5=2,8=3,13=1,38=6/2,8;
 8/6=1,10=2,108=1/1;
 9/41=1,42=1,48=2,70=2/14;
 6/7=2,8=2,9=2,10=2/1;
 99/5=1,9=1/99;
 ------------------
 TD-DFT calculation
 ------------------
 Structure from the checkpoint file:  "/home/junhkim/WORK/Review_DD/TADF-Design/data/td_dft/results/mol_661/Gau-2702867.chk"
 Charge =  0 Multiplicity = 1
 Redundant internal coordinates found in file.  (old form).
 C,0,5.0491912496,0.4487980123,-0.3669250694
 C,0,5.2121191212,-0.1133471994,0.8713742112
 S,0,3.6927783346,-0.529156416,1.5924191531
 C,0,2.8110280929,0.0657559718,0.1978302568
 C,0,1.3543180848,0.0277170086,0.1073420197
 C,0,0.5262614337,-0.4869364074,1.1249106849
 N,0,-0.7968156794,-0.5169600212,1.032902699
 C,0,-1.3543178877,-0.0277189944,-0.0940953896
 C,0,-2.8110276612,-0.0657622437,-0.1845856039
 C,0,-3.6844532461,-0.5510948865,0.7640170505
 C,0,-5.0491910934,-0.4487992699,0.3801720337
 C,0,-5.2121210254,0.1133835422,-0.8581099048
 S,0,-3.692776931,0.5291324141,-1.5791826785
 C,0,-0.5262611231,0.4869323514,-1.1116650097
 N,0,0.796815926,0.5169571264,-1.0196564882
 C,0,3.684454559,0.5510725198,-0.7507798214
 H,0,5.8770028983,0.7791186706,-0.984839727
 H,0,6.1324264939,-0.3091363003,1.4052416082
 H,0,0.9532139061,-0.8871815565,2.0434341811
 H,0,-3.3336183347,-0.964323316,1.7016540364
 H,0,-5.8770029518,-0.7791160707,0.9980884725
 H,0,-6.1324301415,0.3092045366,-1.3919625987
 H,0,-0.9532134097,0.8871741042,-2.0301900723
 H,0,3.333620385,0.9642874241,-1.6884230438
 Recover connectivity data from disk.
                           ----------------------------
                           !    Current Parameters    !
                           ! (Angstroms and Degrees)  !
 --------------------------                            --------------------------
 ! Name  Definition              Value                                          !
 --------------------------------------------------------------------------------
 ! R1    R(1,2)                  1.3696                                         !
 ! R2    R(1,16)                 1.4214                                         !
 ! R3    R(1,17)                 1.0845                                         !
 ! R4    R(2,3)                  1.7324                                         !
 ! R5    R(2,18)                 1.0818                                         !
 ! R6    R(3,4)                  1.7539                                         !
 ! R7    R(4,5)                  1.46                                           !
 ! R8    R(4,16)                 1.3778                                         !
 ! R9    R(5,6)                  1.4093                                         !
 ! R10   R(5,15)                 1.3492                                         !
 ! R11   R(6,7)                  1.3266                                         !
 ! R12   R(6,19)                 1.0891                                         !
 ! R13   R(7,8)                  1.3492                                         !
 ! R14   R(8,9)                  1.46                                           !
 ! R15   R(8,14)                 1.4093                                         !
 ! R16   R(9,10)                 1.3778                                         !
 ! R17   R(9,13)                 1.7539                                         !
 ! R18   R(10,11)                1.4214                                         !
 ! R19   R(10,20)                1.0831                                         !
 ! R20   R(11,12)                1.3696                                         !
 ! R21   R(11,21)                1.0845                                         !
 ! R22   R(12,13)                1.7324                                         !
 ! R23   R(12,22)                1.0818                                         !
 ! R24   R(14,15)                1.3266                                         !
 ! R25   R(14,23)                1.0891                                         !
 ! R26   R(16,24)                1.0831                                         !
 ! A1    A(2,1,16)             112.8244                                         !
 ! A2    A(2,1,17)             123.3206                                         !
 ! A3    A(16,1,17)            123.855                                          !
 ! A4    A(1,2,3)              111.7454                                         !
 ! A5    A(1,2,18)             128.4364                                         !
 ! A6    A(3,2,18)             119.8182                                         !
 ! A7    A(2,3,4)               91.636                                          !
 ! A8    A(3,4,5)              122.8221                                         !
 ! A9    A(3,4,16)             110.3789                                         !
 ! A10   A(5,4,16)             126.799                                          !
 ! A11   A(4,5,6)              123.437                                          !
 ! A12   A(4,5,15)             117.0394                                         !
 ! A13   A(6,5,15)             119.5236                                         !
 ! A14   A(5,6,7)              122.9704                                         !
 ! A15   A(5,6,19)             120.8524                                         !
 ! A16   A(7,6,19)             116.1772                                         !
 ! A17   A(6,7,8)              117.506                                          !
 ! A18   A(7,8,9)              117.0394                                         !
 ! A19   A(7,8,14)             119.5236                                         !
 ! A20   A(9,8,14)             123.437                                          !
 ! A21   A(8,9,10)             126.799                                          !
 ! A22   A(8,9,13)             122.8221                                         !
 ! A23   A(10,9,13)            110.3789                                         !
 ! A24   A(9,10,11)            113.4154                                         !
 ! A25   A(9,10,20)            121.6755                                         !
 ! A26   A(11,10,20)           124.909                                          !
 ! A27   A(10,11,12)           112.8244                                         !
 ! A28   A(10,11,21)           123.855                                          !
 ! A29   A(12,11,21)           123.3206                                         !
 ! A30   A(11,12,13)           111.7454                                         !
 ! A31   A(11,12,22)           128.4364                                         !
 ! A32   A(13,12,22)           119.8182                                         !
 ! A33   A(9,13,12)             91.636                                          !
 ! A34   A(8,14,15)            122.9704                                         !
 ! A35   A(8,14,23)            120.8524                                         !
 ! A36   A(15,14,23)           116.1772                                         !
 ! A37   A(5,15,14)            117.506                                          !
 ! A38   A(1,16,4)             113.4154                                         !
 ! A39   A(1,16,24)            124.909                                          !
 ! A40   A(4,16,24)            121.6755                                         !
 ! D1    D(16,1,2,3)             0.0022                                         !
 ! D2    D(16,1,2,18)         -179.9994                                         !
 ! D3    D(17,1,2,3)          -179.9987                                         !
 ! D4    D(17,1,2,18)           -0.0003                                         !
 ! D5    D(2,1,16,4)            -0.0002                                         !
 ! D6    D(2,1,16,24)          179.9991                                         !
 ! D7    D(17,1,16,4)         -179.9993                                         !
 ! D8    D(17,1,16,24)           0.0                                            !
 ! D9    D(1,2,3,4)             -0.0027                                         !
 ! D10   D(18,2,3,4)           179.9988                                         !
 ! D11   D(2,3,4,5)           -179.9984                                         !
 ! D12   D(2,3,4,16)             0.0025                                         !
 ! D13   D(3,4,5,6)              0.0003                                         !
 ! D14   D(3,4,5,15)          -179.9994                                         !
 ! D15   D(16,4,5,6)           179.9992                                         !
 ! D16   D(16,4,5,15)           -0.0005                                         !
 ! D17   D(3,4,16,1)            -0.0018                                         !
 ! D18   D(3,4,16,24)          179.9989                                         !
 ! D19   D(5,4,16,1)           179.9992                                         !
 ! D20   D(5,4,16,24)           -0.0001                                         !
 ! D21   D(4,5,6,7)           -179.9998                                         !
 ! D22   D(4,5,6,19)             0.0001                                         !
 ! D23   D(15,5,6,7)            -0.0001                                         !
 ! D24   D(15,5,6,19)          179.9998                                         !
 ! D25   D(4,5,15,14)          179.9998                                         !
 ! D26   D(6,5,15,14)            0.0001                                         !
 ! D27   D(5,6,7,8)              0.0001                                         !
 ! D28   D(19,6,7,8)          -179.9998                                         !
 ! D29   D(6,7,8,9)            179.9999                                         !
 ! D30   D(6,7,8,14)             0.0                                            !
 ! D31   D(7,8,9,10)            -0.0001                                         !
 ! D32   D(7,8,9,13)          -179.9998                                         !
 ! D33   D(14,8,9,10)          179.9998                                         !
 ! D34   D(14,8,9,13)            0.0001                                         !
 ! D35   D(7,8,14,15)           -0.0001                                         !
 ! D36   D(7,8,14,23)          180.0                                            !
 ! D37   D(9,8,14,15)          180.0                                            !
 ! D38   D(9,8,14,23)            0.0                                            !
 ! D39   D(8,9,10,11)          179.9998                                         !
 ! D40   D(8,9,10,20)            0.0                                            !
 ! D41   D(13,9,10,11)          -0.0005                                         !
 ! D42   D(13,9,10,20)         179.9997                                         !
 ! D43   D(8,9,13,12)         -179.9996                                         !
 ! D44   D(10,9,13,12)           0.0007                                         !
 ! D45   D(9,10,11,12)          -0.0001                                         !
 ! D46   D(9,10,11,21)        -179.9998                                         !
 ! D47   D(20,10,11,12)        179.9997                                         !
 ! D48   D(20,10,11,21)          0.0                                            !
 ! D49   D(10,11,12,13)          0.0006                                         !
 ! D50   D(10,11,12,22)       -179.9998                                         !
 ! D51   D(21,11,12,13)       -179.9996                                         !
 ! D52   D(21,11,12,22)         -0.0001                                         !
 ! D53   D(11,12,13,9)          -0.0008                                         !
 ! D54   D(22,12,13,9)         179.9996                                         !
 ! D55   D(8,14,15,5)            0.0                                            !
 ! D56   D(23,14,15,5)         180.0                                            !
 --------------------------------------------------------------------------------
                          Input orientation:                          
 ---------------------------------------------------------------------
 Center     Atomic      Atomic             Coordinates (Angstroms)
 Number     Number       Type             X           Y           Z
 ---------------------------------------------------------------------
      1          6           0        5.049191    0.448798   -0.366925
      2          6           0        5.212119   -0.113347    0.871374
      3         16           0        3.692778   -0.529156    1.592419
      4          6           0        2.811028    0.065756    0.197830
      5          6           0        1.354318    0.027717    0.107342
      6          6           0        0.526261   -0.486936    1.124911
      7          7           0       -0.796816   -0.516960    1.032903
      8          6           0       -1.354318   -0.027719   -0.094095
      9          6           0       -2.811028   -0.065762   -0.184586
     10          6           0       -3.684453   -0.551095    0.764017
     11          6           0       -5.049191   -0.448799    0.380172
     12          6           0       -5.212121    0.113384   -0.858110
     13         16           0       -3.692777    0.529132   -1.579183
     14          6           0       -0.526261    0.486932   -1.111665
     15          7           0        0.796816    0.516957   -1.019656
     16          6           0        3.684455    0.551073   -0.750780
     17          1           0        5.877003    0.779119   -0.984840
     18          1           0        6.132426   -0.309136    1.405242
     19          1           0        0.953214   -0.887182    2.043434
     20          1           0       -3.333618   -0.964323    1.701654
     21          1           0       -5.877003   -0.779116    0.998088
     22          1           0       -6.132430    0.309205   -1.391963
     23          1           0       -0.953213    0.887174   -2.030190
     24          1           0        3.333620    0.964287   -1.688423
 ---------------------------------------------------------------------
                    Distance matrix (angstroms):
                    1          2          3          4          5
     1  C    0.000000
     2  C    1.369649   0.000000
     3  S    2.575904   1.732397   0.000000
     4  C    2.339881   2.500195   1.753933   0.000000
     5  C    3.748910   3.935260   2.825590   1.460013   0.000000
     6  C    4.853665   4.707559   3.201121   2.526877   1.409252
     7  N    6.088350   6.024640   4.524341   3.748792   2.404311
     8  C    6.427008   6.637587   5.344993   4.176609   2.716682
     9  C    7.879154   8.092478   6.758104   5.636581   4.176609
    10  C    8.863146   8.907982   7.423630   6.549225   5.114241
    11  C   10.165685  10.278536   8.825986   7.879154   6.427008
    12  C   10.278536  10.569168   9.258249   8.092478   6.637587
    13  S    8.825986   9.258249   8.107124   6.758104   5.344993
    14  C    5.625101   6.100966   5.113199   3.609663   2.287670
    15  N    4.302720   4.844397   4.037808   2.396436   1.349181
    16  C    1.421376   2.325209   2.580222   1.377776   2.537678
    17  H    1.084529   2.164277   3.622801   3.362707   4.712976
    18  H    2.210981   1.081810   2.456690   3.553882   4.962694
    19  H    4.936771   4.484509   2.799430   2.786722   2.178618
    20  H    8.749139   8.628045   7.040707   6.409308   5.050022
    21  H   11.079384  11.109812   9.591477   8.765621   7.330512
    22  H   11.229374  11.575839  10.302626   9.086922   7.640586
    23  H    6.243996   6.887049   6.059252   4.450653   3.260738
    24  H    2.226043   3.353001   3.622609   2.153698   2.831885
                    6          7          8          9         10
     6  C    0.000000
     7  N    1.326612   0.000000
     8  C    2.287670   1.349181   0.000000
     9  C    3.609663   2.396436   1.460013   0.000000
    10  C    4.226639   2.900330   2.537678   1.377776   0.000000
    11  C    5.625101   4.302720   3.748910   2.339881   1.421376
    12  C    6.100966   4.844397   3.935260   2.500196   2.325209
    13  S    5.113199   4.037808   2.825590   1.753933   2.580222
    14  C    2.656783   2.383311   1.409252   2.526877   3.817049
    15  N    2.383311   2.796721   2.404311   3.748792   4.940040
    16  C    3.817049   4.940040   5.114241   6.549225   7.603301
    17  H    5.889344   7.091612   7.330512   8.765621   9.810678
    18  H    5.615985   6.942350   7.640586   9.086922   9.840774
    19  H    1.089114   2.054469   3.260738   4.450653   4.822636
    20  H    3.931819   2.661340   2.831885   2.153698   1.083054
    21  H    6.411181   5.087066   4.712976   3.362707   2.216767
    22  H    7.162867   5.918725   4.962694   3.553882   3.373567
    23  H    3.745889   3.373217   2.178618   2.786722   4.163638
    24  H    4.231095   5.163353   5.050022   6.409308   7.587108
                   11         12         13         14         15
    11  C    0.000000
    12  C    1.369649   0.000000
    13  S    2.575904   1.732397   0.000000
    14  C    4.853665   4.707559   3.201121   0.000000
    15  N    6.088350   6.024640   4.524341   1.326612   0.000000
    16  C    8.863146   8.907982   7.423630   4.226639   2.900330
    17  H   11.079384  11.109812   9.591477   6.411181   5.087066
    18  H   11.229374  11.575839  10.302626   7.162867   5.918725
    19  H    6.243996   6.887049   6.059252   3.745889   3.373217
    20  H    2.226043   3.353001   3.622609   4.231095   5.163353
    21  H    1.084529   2.164277   3.622801   5.889344   7.091612
    22  H    2.210981   1.081810   2.456690   5.615985   6.942350
    23  H    4.936771   4.484509   2.799430   1.089114   2.054469
    24  H    8.749139   8.628045   7.040707   3.931819   2.661340
                   16         17         18         19         20
    16  C    0.000000
    17  H    2.216767   0.000000
    18  H    3.373567   2.638566   0.000000
    19  H    4.163638   6.015870   5.250302   0.000000
    20  H    7.587108   9.751532   9.493321   4.301127   0.000000
    21  H    9.810678  12.021512  12.025517   6.910592   2.645394
    22  H    9.840774  12.025517  12.594975   7.964901   4.361844
    23  H    4.822636   6.910592   7.964901   4.834999   4.798024
    24  H    1.083054   2.645394   4.361844   4.798024   7.724263
                   21         22         23         24
    21  H    0.000000
    22  H    2.638566   0.000000
    23  H    6.015870   5.250302   0.000000
    24  H    9.751532   9.493321   4.301127   0.000000
 Stoichiometry    C12H8N2S2
 Framework group  C1[X(C12H8N2S2)]
 Deg. of freedom    66
 Full point group                 C1      NOp   1
 Largest Abelian subgroup         C1      NOp   1
 Largest concise Abelian subgroup C1      NOp   1
                         Standard orientation:                         
 ---------------------------------------------------------------------
 Center     Atomic      Atomic             Coordinates (Angstroms)
 Number     Number       Type             X           Y           Z
 ---------------------------------------------------------------------
      1          6           0        4.952289   -1.144608   -0.000002
      2          6           0        5.281347    0.184925   -0.000036
      3         16           0        3.873556    1.194541    0.000016
      4          6           0        2.811115   -0.200988    0.000001
      5          6           0        1.355524   -0.087438   -0.000003
      6          6           0        0.672812    1.145403   -0.000001
      7          7           0       -0.650578    1.237804   -0.000001
      8          6           0       -1.355524    0.087438   -0.000002
      9          6           0       -2.811115    0.200988   -0.000001
     10          6           0       -3.548114    1.365075    0.000002
     11          6           0       -4.952289    1.144608   -0.000003
     12          6           0       -5.281347   -0.184925   -0.000011
     13         16           0       -3.873556   -1.194541    0.000004
     14          6           0       -0.672812   -1.145403   -0.000001
     15          7           0        0.650578   -1.237804   -0.000002
     16          6           0        3.548114   -1.365075    0.000016
     17          1           0        5.688857   -1.940641   -0.000005
     18          1           0        6.265477    0.634148   -0.000063
     19          1           0        1.220186    2.086972    0.000002
     20          1           0       -3.073573    2.338634    0.000005
     21          1           0       -5.688857    1.940641   -0.000004
     22          1           0       -6.265477   -0.634148   -0.000018
     23          1           0       -1.220186   -2.086972   -0.000000
     24          1           0        3.073573   -2.338634    0.000028
 ---------------------------------------------------------------------
 Rotational constants (GHZ):           1.8594698           0.1717408           0.1572200
 Standard basis: 6-31G(d) (6D, 7F)
 There are   264 symmetry adapted cartesian basis functions of A   symmetry.
 There are   264 symmetry adapted basis functions of A   symmetry.
   264 basis functions,   528 primitive gaussians,   264 cartesian basis functions
    63 alpha electrons       63 beta electrons
       nuclear repulsion energy      1150.1428903130 Hartrees.
 NAtoms=   24 NActive=   24 NUniq=   24 SFac= 1.00D+00 NAtFMM=   60 NAOKFM=F Big=F
 Integral buffers will be    131072 words long.
 Regular integral format.
 Two-electron integral symmetry is turned on.
 One-electron integrals computed using PRISM.
 NBasis=   264 RedAO= T EigKep=  9.32D-04  NBF=   264
 NBsUse=   264 1.00D-06 EigRej= -1.00D+00 NBFU=   264
 Initial guess from the checkpoint file:  "/home/junhkim/WORK/Review_DD/TADF-Design/data/td_dft/results/mol_661/Gau-2702867.chk"
 B after Tr=    -0.000000    0.000000   -0.000000
         Rot=    1.000000   -0.000000    0.000000    0.000000 Ang=   0.00 deg.
 Requested convergence on RMS density matrix=1.00D-08 within  32 cycles.
 Requested convergence on MAX density matrix=1.00D-06.
 Requested convergence on             energy=1.00D-06.
 No special actions if energy rises.
 SCF Done:  E(RB3LYP) =  -1367.95062508     A.U. after    2 cycles
            NFock=  2  Conv=0.75D-08     -V/T= 2.0059
 QCSCF skips out because SCF is already converged.
 DoSCS=F DFT=T ScalE2(SS,OS)=  1.000000  1.000000
 ExpMin= 1.17D-01 ExpMax= 2.19D+04 ExpMxC= 3.30D+03 IAcc=3 IRadAn=         5 AccDes= 0.00D+00
 HarFok:  IExCor=  205 AccDes= 0.00D+00 IRadAn=         5 IDoV=-2 UseB2=F ITyADJ=14
 ICtDFT= 12500011 ScaDFX=  1.000000  1.000000  1.000000  1.000000
 GSVD:  LWork=        -768 too small for GESVD, short by        3240 words or        3240 for optimal perf.
 Range of M.O.s used for correlation:    25   264
 NBasis=   264 NAE=    63 NBE=    63 NFC=    24 NFV=     0
 NROrb=    240 NOA=    39 NOB=    39 NVA=   201 NVB=   201
 Orbital symmetries:
       Occupied  (A) (A) (A) (A) (A) (A) (A) (A) (A) (A) (A) (A)
                 (A) (A) (A) (A) (A) (A) (A) (A) (A) (A) (A) (A)
                 (A) (A) (A) (A) (A) (A) (A) (A) (A) (A) (A) (A)
                 (A) (A) (A) (A) (A) (A) (A) (A) (A) (A) (A) (A)
                 (A) (A) (A) (A) (A) (A) (A) (A) (A) (A) (A) (A)
                 (A) (A) (A)
       Virtual   (A) (A) (A) (A) (A) (A) (A) (A) (A) (A) (A) (A)
                 (A) (A) (A) (A) (A) (A) (A) (A) (A) (A) (A) (A)
                 (A) (A) (A) (A) (A) (A) (A) (A) (A) (A) (A) (A)
                 (A) (A) (A) (A) (A) (A) (A) (A) (A) (A) (A) (A)
                 (A) (A) (A) (A) (A) (A) (A) (A) (A) (A) (A) (A)
                 (A) (A) (A) (A) (A) (A) (A) (A) (A) (A) (A) (A)
                 (A) (A) (A) (A) (A) (A) (A) (A) (A) (A) (A) (A)
                 (A) (A) (A) (A) (A) (A) (A) (A) (A) (A) (A) (A)
                 (A) (A) (A) (A) (A) (A) (A) (A) (A) (A) (A) (A)
                 (A) (A) (A) (A) (A) (A) (A) (A) (A) (A) (A) (A)
                 (A) (A) (A) (A) (A) (A) (A) (A) (A) (A) (A) (A)
                 (A) (A) (A) (A) (A) (A) (A) (A) (A) (A) (A) (A)
                 (A) (A) (A) (A) (A) (A) (A) (A) (A) (A) (A) (A)
                 (A) (A) (A) (A) (A) (A) (A) (A) (A) (A) (A) (A)
                 (A) (A) (A) (A) (A) (A) (A) (A) (A) (A) (A) (A)
                 (A) (A) (A) (A) (A) (A) (A) (A) (A) (A) (A) (A)
                 (A) (A) (A) (A) (A) (A) (A) (A) (A)
     8 initial guesses have been made.
 Convergence on wavefunction:    0.001000000000000
 Iteration     1 Dimension     8 NMult     0 NNew      8
 CISAX will form     8 AO SS matrices at one time.
 New state      1 was old state      2
 New state      2 was old state      4
 New state      3 was old state      8
 New state      4 was old state      6
 Vector   2 SDiff=4.21D+00 TDiff=5.19D-05 assumed to be triplet.
 Vector   4 SDiff=4.52D+00 TDiff=4.21D-05 assumed to be triplet.
 Iteration     2 Dimension    12 NMult     8 NNew      4
 New state      2 was old state      5
 Iteration     3 Dimension    14 NMult    12 NNew      2
 Iteration     4 Dimension    16 NMult    14 NNew      2
 Iteration     5 Dimension    18 NMult    16 NNew      2
 Iteration     6 Dimension    20 NMult    18 NNew      2
 ***********************************************************************
 Excited states from <AA,BB:AA,BB> singles matrix:
 ***********************************************************************
 
 Ground to excited state transition densities written to RWF  633
 Ground to excited state transition electric dipole moments (Au):
       state          X           Y           Z        Dip. S.      Osc.
         1        -0.0000     -0.0000     -0.0000      0.0000      0.0000
         2        -0.0003     -0.0000      0.1980      0.0392      0.0037
 Ground to excited state transition velocity dipole moments (Au):
       state          X           Y           Z        Dip. S.      Osc.
         1         0.0000      0.0000      0.0000      0.0000      0.0000
         2         0.0000      0.0000     -0.0357      0.0013      0.0060
 Ground to excited state transition magnetic dipole moments (Au):
       state          X           Y           Z
         1         0.0000      0.0000      0.0000
         2         0.0000      0.0000      0.0001
 Ground to excited state transition velocity quadrupole moments (Au):
       state          XX          YY          ZZ          XY          XZ          YZ
         1         0.0000      0.0000      0.0000      0.0000      0.0000      0.0000
         2         0.0000     -0.0000      0.0000      0.0000     -0.0000     -0.0000
 <0|del|b> * <b|rxdel|0> + <0|del|b> * <b|delr+rdel|0>
 Rotatory Strengths (R) in cgs (10**-40 erg-esu-cm/Gauss)
       state          XX          YY          ZZ    R(velocity)    E-M Angle
         1         0.0000      0.0000      0.0000      0.0000       90.00
         2        -0.0102     -0.0022      0.0000     -0.0041       90.00
 1/2[<0|r|b>*<b|rxdel|0> + (<0|rxdel|b>*<b|r|0>)*]
 Rotatory Strengths (R) in cgs (10**-40 erg-esu-cm/Gauss)
       state          XX          YY          ZZ     R(length)
         1         0.0000      0.0000      0.0000      0.0000
         2         0.0000      0.0000     -0.0097     -0.0032
  1/2[<0|del|b>*<b|r|0> + (<0|r|b>*<b|del|0>)*] (Au)
       state          X           Y           Z        Dip. S.   Osc.(frdel)
         1        -0.0000     -0.0000     -0.0000      0.0000      0.0000
         2        -0.0000     -0.0000     -0.0071      0.0071      0.0047

 Excitation energies and oscillator strengths:
 
 Excited State   1:      Triplet-A      2.1662 eV  572.35 nm  f=0.0000  <S**2>=2.000
      62 -> 66        -0.17090
      63 -> 64         0.67525
 This state for optimization and/or second-order correction.
 Total Energy, E(TD-HF/TD-DFT) =  -1367.87101803    
 Copying the excited state density for this state as the 1-particle RhoCI density.
 
 Excited State   2:      Singlet-A      3.8677 eV  320.56 nm  f=0.0037  <S**2>=0.000
      61 -> 64         0.70721
 SavETr:  write IOETrn=   770 NScale= 10 NData=  16 NLR=1 NState=    2 LETran=      46.

 **********************************************************************

            Population analysis using the SCF Density.

 **********************************************************************

 Orbital symmetries:
       Occupied  (A) (A) (A) (A) (A) (A) (A) (A) (A) (A) (A) (A)
                 (A) (A) (A) (A) (A) (A) (A) (A) (A) (A) (A) (A)
                 (A) (A) (A) (A) (A) (A) (A) (A) (A) (A) (A) (A)
                 (A) (A) (A) (A) (A) (A) (A) (A) (A) (A) (A) (A)
                 (A) (A) (A) (A) (A) (A) (A) (A) (A) (A) (A) (A)
                 (A) (A) (A)
       Virtual   (A) (A) (A) (A) (A) (A) (A) (A) (A) (A) (A) (A)
                 (A) (A) (A) (A) (A) (A) (A) (A) (A) (A) (A) (A)
                 (A) (A) (A) (A) (A) (A) (A) (A) (A) (A) (A) (A)
                 (A) (A) (A) (A) (A) (A) (A) (A) (A) (A) (A) (A)
                 (A) (A) (A) (A) (A) (A) (A) (A) (A) (A) (A) (A)
                 (A) (A) (A) (A) (A) (A) (A) (A) (A) (A) (A) (A)
                 (A) (A) (A) (A) (A) (A) (A) (A) (A) (A) (A) (A)
                 (A) (A) (A) (A) (A) (A) (A) (A) (A) (A) (A) (A)
                 (A) (A) (A) (A) (A) (A) (A) (A) (A) (A) (A) (A)
                 (A) (A) (A) (A) (A) (A) (A) (A) (A) (A) (A) (A)
                 (A) (A) (A) (A) (A) (A) (A) (A) (A) (A) (A) (A)
                 (A) (A) (A) (A) (A) (A) (A) (A) (A) (A) (A) (A)
                 (A) (A) (A) (A) (A) (A) (A) (A) (A) (A) (A) (A)
                 (A) (A) (A) (A) (A) (A) (A) (A) (A) (A) (A) (A)
                 (A) (A) (A) (A) (A) (A) (A) (A) (A) (A) (A) (A)
                 (A) (A) (A) (A) (A) (A) (A) (A) (A) (A) (A) (A)
                 (A) (A) (A) (A) (A) (A) (A) (A) (A)
 The electronic state is 1-A.
 Alpha  occ. eigenvalues --  -88.91407 -88.91407 -14.34892 -14.34892 -10.24643
 Alpha  occ. eigenvalues --  -10.24643 -10.23554 -10.23554 -10.22582 -10.22582
 Alpha  occ. eigenvalues --  -10.22279 -10.22279 -10.19917 -10.19917 -10.19640
 Alpha  occ. eigenvalues --  -10.19640  -7.97524  -7.97524  -5.93930  -5.93930
 Alpha  occ. eigenvalues --   -5.93563  -5.93563  -5.93224  -5.93224  -0.98526
 Alpha  occ. eigenvalues --   -0.91499  -0.88327  -0.88315  -0.80231  -0.75273
 Alpha  occ. eigenvalues --   -0.74049  -0.73876  -0.70987  -0.66344  -0.65681
 Alpha  occ. eigenvalues --   -0.57616  -0.56650  -0.56413  -0.54877  -0.52461
 Alpha  occ. eigenvalues --   -0.51822  -0.51241  -0.46815  -0.46572  -0.43733
 Alpha  occ. eigenvalues --   -0.41892  -0.40355  -0.40020  -0.39838  -0.39363
 Alpha  occ. eigenvalues --   -0.38959  -0.38694  -0.37685  -0.34891  -0.34613
 Alpha  occ. eigenvalues --   -0.33386  -0.30696  -0.30029  -0.25739  -0.25686
 Alpha  occ. eigenvalues --   -0.25103  -0.24853  -0.20774
 Alpha virt. eigenvalues --   -0.07167  -0.04043  -0.01794   0.02317   0.02629
 Alpha virt. eigenvalues --    0.02863   0.06102   0.08215   0.08868   0.09404
 Alpha virt. eigenvalues --    0.10852   0.10852   0.14661   0.14940   0.16241
 Alpha virt. eigenvalues --    0.16470   0.17082   0.17995   0.18025   0.21426
 Alpha virt. eigenvalues --    0.23180   0.23183   0.25246   0.26867   0.29289
 Alpha virt. eigenvalues --    0.30039   0.31426   0.32768   0.34356   0.35100
 Alpha virt. eigenvalues --    0.35900   0.35962   0.36744   0.39811   0.40894
 Alpha virt. eigenvalues --    0.41897   0.42639   0.43241   0.44836   0.47596
 Alpha virt. eigenvalues --    0.49510   0.51095   0.51222   0.51839   0.54106
 Alpha virt. eigenvalues --    0.54159   0.55142   0.55217   0.55866   0.58072
 Alpha virt. eigenvalues --    0.58717   0.59134   0.59216   0.60502   0.60617
 Alpha virt. eigenvalues --    0.60791   0.61940   0.63553   0.64669   0.65726
 Alpha virt. eigenvalues --    0.66223   0.67166   0.69221   0.70780   0.74432
 Alpha virt. eigenvalues --    0.76506   0.78989   0.79349   0.79522   0.79800
 Alpha virt. eigenvalues --    0.80768   0.81854   0.82632   0.82756   0.83371
 Alpha virt. eigenvalues --    0.84453   0.84585   0.86472   0.86790   0.87194
 Alpha virt. eigenvalues --    0.87377   0.87819   0.89945   0.91156   0.92935
 Alpha virt. eigenvalues --    0.93645   0.93852   0.96120   0.96627   0.99328
 Alpha virt. eigenvalues --    1.00452   1.00647   1.02627   1.03361   1.03693
 Alpha virt. eigenvalues --    1.07320   1.08717   1.10899   1.11175   1.12863
 Alpha virt. eigenvalues --    1.16327   1.19200   1.20412   1.23413   1.24363
 Alpha virt. eigenvalues --    1.27126   1.28755   1.30802   1.31086   1.32235
 Alpha virt. eigenvalues --    1.37262   1.38092   1.38628   1.39237   1.44868
 Alpha virt. eigenvalues --    1.44939   1.45476   1.47295   1.50857   1.50908
 Alpha virt. eigenvalues --    1.52808   1.53392   1.55951   1.60712   1.60770
 Alpha virt. eigenvalues --    1.65299   1.72561   1.73430   1.76934   1.77193
 Alpha virt. eigenvalues --    1.77626   1.82255   1.82488   1.87514   1.88161
 Alpha virt. eigenvalues --    1.88536   1.90538   1.92194   1.93826   1.94374
 Alpha virt. eigenvalues --    1.95207   1.98298   2.05721   2.11070   2.11349
 Alpha virt. eigenvalues --    2.13701   2.16175   2.17624   2.19290   2.19871
 Alpha virt. eigenvalues --    2.21180   2.22353   2.23421   2.24369   2.25392
 Alpha virt. eigenvalues --    2.29061   2.29864   2.31076   2.31281   2.32808
 Alpha virt. eigenvalues --    2.35758   2.38989   2.43281   2.45571   2.48382
 Alpha virt. eigenvalues --    2.50157   2.54207   2.54450   2.55987   2.63060
 Alpha virt. eigenvalues --    2.64450   2.67012   2.69505   2.71550   2.78294
 Alpha virt. eigenvalues --    2.79735   2.84066   2.87388   2.88615   2.92459
 Alpha virt. eigenvalues --    3.03395   3.07619   3.07930   3.22545   3.44138
 Alpha virt. eigenvalues --    3.92415   3.94547   4.03042   4.06902   4.10809
 Alpha virt. eigenvalues --    4.10960   4.11634   4.13686   4.20694   4.28034
 Alpha virt. eigenvalues --    4.30710   4.35681   4.40966   4.42617   4.55496
 Alpha virt. eigenvalues --    4.62342
          Condensed to atoms (all electrons):
               1          2          3          4          5          6
     1  C    4.842647   0.574420  -0.081930  -0.027763   0.005851  -0.000295
     2  C    0.574420   5.234095   0.318228  -0.055107   0.003503   0.000047
     3  S   -0.081930   0.318228  15.343959   0.325473  -0.060178  -0.000296
     4  C   -0.027763  -0.055107   0.325473   5.329047   0.323578  -0.068190
     5  C    0.005851   0.003503  -0.060178   0.323578   4.732428   0.403911
     6  C   -0.000295   0.000047  -0.000296  -0.068190   0.403911   5.020463
     7  N    0.000001  -0.000001   0.000255   0.005248  -0.017491   0.444090
     8  C    0.000000   0.000000   0.000026   0.001157  -0.027798  -0.062179
     9  C    0.000000   0.000000   0.000000   0.000011   0.001157   0.007389
    10  C   -0.000000  -0.000000  -0.000000  -0.000001  -0.000002   0.000288
    11  C    0.000000  -0.000000  -0.000000   0.000000   0.000000  -0.000003
    12  C   -0.000000  -0.000000   0.000000   0.000000   0.000000   0.000002
    13  S   -0.000000   0.000000   0.000000   0.000000   0.000026  -0.000171
    14  C   -0.000003   0.000002  -0.000171   0.007389  -0.062179  -0.039127
    15  N    0.000546  -0.000027   0.003134  -0.093801   0.457773  -0.078723
    16  C    0.489206  -0.048382  -0.095947   0.502256  -0.010025   0.009539
    17  H    0.362293  -0.049516   0.006789   0.004843  -0.000123   0.000000
    18  H   -0.022086   0.357367  -0.035216   0.001920  -0.000086   0.000004
    19  H    0.000002   0.000032   0.007518  -0.001966  -0.059472   0.366858
    20  H   -0.000000  -0.000000  -0.000000  -0.000000   0.000012   0.000044
    21  H   -0.000000   0.000000   0.000000  -0.000000  -0.000000  -0.000000
    22  H    0.000000   0.000000   0.000000  -0.000000  -0.000000  -0.000000
    23  H   -0.000000   0.000000   0.000006  -0.000092   0.005277   0.000187
    24  H   -0.044743   0.006153   0.006893  -0.047596  -0.009673   0.000325
               7          8          9         10         11         12
     1  C    0.000001   0.000000   0.000000  -0.000000   0.000000  -0.000000
     2  C   -0.000001   0.000000   0.000000  -0.000000  -0.000000  -0.000000
     3  S    0.000255   0.000026   0.000000  -0.000000  -0.000000   0.000000
     4  C    0.005248   0.001157   0.000011  -0.000001   0.000000   0.000000
     5  C   -0.017491  -0.027798   0.001157  -0.000002   0.000000   0.000000
     6  C    0.444090  -0.062179   0.007389   0.000288  -0.000003   0.000002
     7  N    6.811954   0.457773  -0.093801  -0.004375   0.000546  -0.000027
     8  C    0.457773   4.732428   0.323578  -0.010025   0.005851   0.003503
     9  C   -0.093801   0.323578   5.329047   0.502256  -0.027763  -0.055107
    10  C   -0.004375  -0.010025   0.502256   4.935096   0.489206  -0.048382
    11  C    0.000546   0.005851  -0.027763   0.489206   4.842647   0.574420
    12  C   -0.000027   0.003503  -0.055107  -0.048382   0.574420   5.234095
    13  S    0.003134  -0.060178   0.325473  -0.095947  -0.081930   0.318228
    14  C   -0.078723   0.403911  -0.068190   0.009539  -0.000295   0.000047
    15  N   -0.029037  -0.017491   0.005248  -0.000123   0.000001  -0.000001
    16  C   -0.000123  -0.000002  -0.000001   0.000000  -0.000000  -0.000000
    17  H   -0.000000  -0.000000  -0.000000  -0.000000  -0.000000   0.000000
    18  H    0.000000  -0.000000  -0.000000   0.000000   0.000000   0.000000
    19  H   -0.050305   0.005277  -0.000092  -0.000033  -0.000000   0.000000
    20  H    0.012129  -0.009673  -0.047596   0.365749  -0.044743   0.006153
    21  H   -0.000002  -0.000123   0.004843  -0.036153   0.362293  -0.049516
    22  H    0.000001  -0.000086   0.001920   0.004394  -0.022086   0.357367
    23  H    0.003949  -0.059472  -0.001966  -0.000196   0.000002   0.000032
    24  H    0.000001   0.000012  -0.000000   0.000000  -0.000000  -0.000000
              13         14         15         16         17         18
     1  C   -0.000000  -0.000003   0.000546   0.489206   0.362293  -0.022086
     2  C    0.000000   0.000002  -0.000027  -0.048382  -0.049516   0.357367
     3  S    0.000000  -0.000171   0.003134  -0.095947   0.006789  -0.035216
     4  C    0.000000   0.007389  -0.093801   0.502256   0.004843   0.001920
     5  C    0.000026  -0.062179   0.457773  -0.010025  -0.000123  -0.000086
     6  C   -0.000171  -0.039127  -0.078723   0.009539   0.000000   0.000004
     7  N    0.003134  -0.078723  -0.029037  -0.000123  -0.000000   0.000000
     8  C   -0.060178   0.403911  -0.017491  -0.000002  -0.000000  -0.000000
     9  C    0.325473  -0.068190   0.005248  -0.000001  -0.000000  -0.000000
    10  C   -0.095947   0.009539  -0.000123   0.000000  -0.000000   0.000000
    11  C   -0.081930  -0.000295   0.000001  -0.000000  -0.000000   0.000000
    12  C    0.318228   0.000047  -0.000001  -0.000000   0.000000   0.000000
    13  S   15.343959  -0.000296   0.000255  -0.000000   0.000000   0.000000
    14  C   -0.000296   5.020463   0.444090   0.000288  -0.000000  -0.000000
    15  N    0.000255   0.444090   6.811954  -0.004375  -0.000002   0.000001
    16  C   -0.000000   0.000288  -0.004375   4.935096  -0.036153   0.004394
    17  H    0.000000  -0.000000  -0.000002  -0.036153   0.570147  -0.003188
    18  H    0.000000  -0.000000   0.000001   0.004394  -0.003188   0.519885
    19  H    0.000006   0.000187   0.003949  -0.000196   0.000000   0.000001
    20  H    0.006893   0.000325   0.000001   0.000000   0.000000   0.000000
    21  H    0.006789   0.000000  -0.000000  -0.000000  -0.000000   0.000000
    22  H   -0.035216   0.000004   0.000000   0.000000   0.000000  -0.000000
    23  H    0.007518   0.366858  -0.050305  -0.000033   0.000000   0.000000
    24  H   -0.000000   0.000044   0.012129   0.365749  -0.002247  -0.000093
              19         20         21         22         23         24
     1  C    0.000002  -0.000000  -0.000000   0.000000  -0.000000  -0.044743
     2  C    0.000032  -0.000000   0.000000   0.000000   0.000000   0.006153
     3  S    0.007518  -0.000000   0.000000   0.000000   0.000006   0.006893
     4  C   -0.001966  -0.000000  -0.000000  -0.000000  -0.000092  -0.047596
     5  C   -0.059472   0.000012  -0.000000  -0.000000   0.005277  -0.009673
     6  C    0.366858   0.000044  -0.000000  -0.000000   0.000187   0.000325
     7  N   -0.050305   0.012129  -0.000002   0.000001   0.003949   0.000001
     8  C    0.005277  -0.009673  -0.000123  -0.000086  -0.059472   0.000012
     9  C   -0.000092  -0.047596   0.004843   0.001920  -0.001966  -0.000000
    10  C   -0.000033   0.365749  -0.036153   0.004394  -0.000196   0.000000
    11  C   -0.000000  -0.044743   0.362293  -0.022086   0.000002  -0.000000
    12  C    0.000000   0.006153  -0.049516   0.357367   0.000032  -0.000000
    13  S    0.000006   0.006893   0.006789  -0.035216   0.007518  -0.000000
    14  C    0.000187   0.000325   0.000000   0.000004   0.366858   0.000044
    15  N    0.003949   0.000001  -0.000000   0.000000  -0.050305   0.012129
    16  C   -0.000196   0.000000  -0.000000   0.000000  -0.000033   0.365749
    17  H    0.000000   0.000000  -0.000000   0.000000   0.000000  -0.002247
    18  H    0.000001   0.000000   0.000000  -0.000000   0.000000  -0.000093
    19  H    0.567840  -0.000039   0.000000   0.000000   0.000038  -0.000018
    20  H   -0.000039   0.546731  -0.002247  -0.000093  -0.000018   0.000000
    21  H    0.000000  -0.002247   0.570147  -0.003188   0.000000   0.000000
    22  H    0.000000  -0.000093  -0.003188   0.519885   0.000001   0.000000
    23  H    0.000038  -0.000018   0.000000   0.000001   0.567840  -0.000039
    24  H   -0.000018   0.000000   0.000000   0.000000  -0.000039   0.546731
 Mulliken charges:
               1
     1  C   -0.098145
     2  C   -0.340813
     3  S    0.261457
     4  C   -0.206406
     5  C    0.313510
     6  C   -0.004162
     7  N   -0.465193
     8  C    0.313510
     9  C   -0.206406
    10  C   -0.111291
    11  C   -0.098145
    12  C   -0.340813
    13  S    0.261457
    14  C   -0.004162
    15  N   -0.465193
    16  C   -0.111291
    17  H    0.147157
    18  H    0.177099
    19  H    0.160416
    20  H    0.166371
    21  H    0.147157
    22  H    0.177099
    23  H    0.160416
    24  H    0.166371
 Sum of Mulliken charges =  -0.00000
 Mulliken charges with hydrogens summed into heavy atoms:
               1
     1  C    0.049011
     2  C   -0.163714
     3  S    0.261457
     4  C   -0.206406
     5  C    0.313510
     6  C    0.156254
     7  N   -0.465193
     8  C    0.313510
     9  C   -0.206406
    10  C    0.055080
    11  C    0.049011
    12  C   -0.163714
    13  S    0.261457
    14  C    0.156254
    15  N   -0.465193
    16  C    0.055080
 Electronic spatial extent (au):  <R**2>=           6298.5798
 Charge=             -0.0000 electrons
 Dipole moment (field-independent basis, Debye):
    X=              0.0000    Y=              0.0000    Z=              0.0000  Tot=              0.0000
 Quadrupole moment (field-independent basis, Debye-Ang):
   XX=            -78.8364   YY=           -101.1555   ZZ=           -109.6465
   XY=             -0.7193   XZ=             -0.0001   YZ=             -0.0000
 Traceless Quadrupole moment (field-independent basis, Debye-Ang):
   XX=             17.7097   YY=             -4.6093   ZZ=            -13.1004
   XY=             -0.7193   XZ=             -0.0001   YZ=             -0.0000
 Octapole moment (field-independent basis, Debye-Ang**2):
  XXX=              0.0000  YYY=              0.0000  ZZZ=              0.0001  XYY=             -0.0000
  XXY=             -0.0000  XXZ=             -0.0014  XZZ=              0.0000  YZZ=              0.0000
  YYZ=              0.0003  XYZ=             -0.0002
 Hexadecapole moment (field-independent basis, Debye-Ang**3):
 XXXX=          -6368.9116 YYYY=           -794.6562 ZZZZ=           -118.3826 XXXY=            -16.3009
 XXXZ=             -0.0060 YYYX=            -26.4916 YYYZ=             -0.0001 ZZZX=              0.0002
 ZZZY=              0.0000 XXYY=          -1307.1372 XXZZ=          -1422.0386 YYZZ=           -166.7436
 XXYZ=             -0.0009 YYXZ=              0.0005 ZZXY=              9.1899
 N-N= 1.150142890313D+03 E-N=-5.517628973941D+03  KE= 1.359869397582D+03
 1\1\GINC-CNODE10\SP\RB3LYP TD-FC\6-31G(d)\C12H8N2S2\JUNHKIM\19-Jan-202
 6\0\\# b3lyp/6-31g* TD=(Nstates=1,50-50) Geom=Check Guess=Read SCF=XQC
 \\TD-DFT calculation\\0,1\C,0,5.0491912496,0.4487980123,-0.3669250694\
 C,0,5.2121191212,-0.1133471994,0.8713742112\S,0,3.6927783346,-0.529156
 416,1.5924191531\C,0,2.8110280929,0.0657559718,0.1978302568\C,0,1.3543
 180848,0.0277170086,0.1073420197\C,0,0.5262614337,-0.4869364074,1.1249
 106849\N,0,-0.7968156794,-0.5169600212,1.032902699\C,0,-1.3543178877,-
 0.0277189944,-0.0940953896\C,0,-2.8110276612,-0.0657622437,-0.18458560
 39\C,0,-3.6844532461,-0.5510948865,0.7640170505\C,0,-5.0491910934,-0.4
 487992699,0.3801720337\C,0,-5.2121210254,0.1133835422,-0.8581099048\S,
 0,-3.692776931,0.5291324141,-1.5791826785\C,0,-0.5262611231,0.48693235
 14,-1.1116650097\N,0,0.796815926,0.5169571264,-1.0196564882\C,0,3.6844
 54559,0.5510725198,-0.7507798214\H,0,5.8770028983,0.7791186706,-0.9848
 39727\H,0,6.1324264939,-0.3091363003,1.4052416082\H,0,0.9532139061,-0.
 8871815565,2.0434341811\H,0,-3.3336183347,-0.964323316,1.7016540364\H,
 0,-5.8770029518,-0.7791160707,0.9980884725\H,0,-6.1324301415,0.3092045
 366,-1.3919625987\H,0,-0.9532134097,0.8871741042,-2.0301900723\H,0,3.3
 33620385,0.9642874241,-1.6884230438\\Version=ES64L-G16RevB.01\State=1-
 A\HF=-1367.9506251\RMSD=7.493e-09\PG=C01 [X(C12H8N2S2)]\\@


 MATERIAL COPIED FROM ONE SCHOLARLY BOOK WITHOUT CREDIT COMPRISES PLAGIARISM.
 MATERIAL COPIED FROM TWO SCHOLARLY BOOKS COMPRISES AN ESSAY.
 MATERIAL COPIED FROM THREE SCHOLARLY BOOKS COMPRISES A DISSERTATION.
 MATERIAL COPIED FROM FOUR SCHOLARLY BOOKS COMPRISES A FIFTH SCHOLARLY BOOK.

                               -- C&EN, 25 FEB 1980
 Job cpu time:       0 days  0 hours 11 minutes 11.9 seconds.
 Elapsed time:       0 days  0 hours  0 minutes 42.1 seconds.
 File lengths (MBytes):  RWF=    433 Int=      0 D2E=      0 Chk=     67 Scr=      2
 Normal termination of Gaussian 16 at Mon Jan 19 00:00:40 2026.
