 Entering Gaussian System, Link 0=g16
 Initial command:
 /appl/Gaussian16/AVX_revB01/g16/l1.exe "/home/junhkim/WORK/Review_DD/TADF-Design/data/td_dft/results/mol_337/Gau-1885044.inp" -scrdir="/home/junhkim/WORK/Review_DD/TADF-Design/data/td_dft/results/mol_337/"
 Entering Link 1 = /appl/Gaussian16/AVX_revB01/g16/l1.exe PID=   1885046.
  
 Copyright (c) 1988-2017, Gaussian, Inc.  All Rights Reserved.
  
 This is part of the Gaussian(R) 16 program.  It is based on
 the Gaussian(R) 09 system (copyright 2009, Gaussian, Inc.),
 the Gaussian(R) 03 system (copyright 2003, Gaussian, Inc.),
 the Gaussian(R) 98 system (copyright 1998, Gaussian, Inc.),
 the Gaussian(R) 94 system (copyright 1995, Gaussian, Inc.),
 the Gaussian 92(TM) system (copyright 1992, Gaussian, Inc.),
 the Gaussian 90(TM) system (copyright 1990, Gaussian, Inc.),
 the Gaussian 88(TM) system (copyright 1988, Gaussian, Inc.),
 the Gaussian 86(TM) system (copyright 1986, Carnegie Mellon
 University), and the Gaussian 82(TM) system (copyright 1983,
 Carnegie Mellon University). Gaussian is a federally registered
 trademark of Gaussian, Inc.
  
 This software contains proprietary and confidential information,
 including trade secrets, belonging to Gaussian, Inc.
  
 This software is provided under written license and may be
 used, copied, transmitted, or stored only in accord with that
 written license.
  
 The following legend is applicable only to US Government
 contracts under FAR:
  
                    RESTRICTED RIGHTS LEGEND
  
 Use, reproduction and disclosure by the US Government is
 subject to restrictions as set forth in subparagraphs (a)
 and (c) of the Commercial Computer Software - Restricted
 Rights clause in FAR 52.227-19.
  
 Gaussian, Inc.
 340 Quinnipiac St., Bldg. 40, Wallingford CT 06492
  
  
 ---------------------------------------------------------------
 Warning -- This program may not be used in any manner that
 competes with the business of Gaussian, Inc. or will provide
 assistance to any competitor of Gaussian, Inc.  The licensee
 of this program is prohibited from giving any competitor of
 Gaussian, Inc. access to this program.  By using this program,
 the user acknowledges that Gaussian, Inc. is engaged in the
 business of creating and licensing software in the field of
 computational chemistry and represents and warrants to the
 licensee that it is not a competitor of Gaussian, Inc. and that
 it will not use this program in any manner prohibited above.
 ---------------------------------------------------------------
  

 Cite this work as:
 Gaussian 16, Revision B.01,
 M. J. Frisch, G. W. Trucks, H. B. Schlegel, G. E. Scuseria, 
 M. A. Robb, J. R. Cheeseman, G. Scalmani, V. Barone, 
 G. A. Petersson, H. Nakatsuji, X. Li, M. Caricato, A. V. Marenich, 
 J. Bloino, B. G. Janesko, R. Gomperts, B. Mennucci, H. P. Hratchian, 
 J. V. Ortiz, A. F. Izmaylov, J. L. Sonnenberg, D. Williams-Young, 
 F. Ding, F. Lipparini, F. Egidi, J. Goings, B. Peng, A. Petrone, 
 T. Henderson, D. Ranasinghe, V. G. Zakrzewski, J. Gao, N. Rega, 
 G. Zheng, W. Liang, M. Hada, M. Ehara, K. Toyota, R. Fukuda, 
 J. Hasegawa, M. Ishida, T. Nakajima, Y. Honda, O. Kitao, H. Nakai, 
 T. Vreven, K. Throssell, J. A. Montgomery, Jr., J. E. Peralta, 
 F. Ogliaro, M. J. Bearpark, J. J. Heyd, E. N. Brothers, K. N. Kudin, 
 V. N. Staroverov, T. A. Keith, R. Kobayashi, J. Normand, 
 K. Raghavachari, A. P. Rendell, J. C. Burant, S. S. Iyengar, 
 J. Tomasi, M. Cossi, J. M. Millam, M. Klene, C. Adamo, R. Cammi, 
 J. W. Ochterski, R. L. Martin, K. Morokuma, O. Farkas, 
 J. B. Foresman, and D. J. Fox, Gaussian, Inc., Wallingford CT, 2016.
 
 ******************************************
 Gaussian 16:  ES64L-G16RevB.01 20-Dec-2017
                19-Jan-2026 
 ******************************************
 %mem=60GB
 %chk=opt.chk
 %nprocshared=16
 Will use up to   16 processors via shared memory.
 ---------------------------
 #P b3lyp/6-31g* opt SCF=XQC
 ---------------------------
 1/18=20,19=15,26=3,38=1/1,3;
 2/9=110,12=2,17=6,18=5,40=1/2;
 3/5=1,6=6,7=1,11=2,25=1,30=1,71=1,74=-5/1,2,3;
 4//1;
 5/5=2,8=3,13=1,38=5/2,8;
 6/7=2,8=2,9=2,10=2,28=1/1;
 7//1,2,3,16;
 1/18=20,19=15,26=3/3(2);
 2/9=110/2;
 99//99;
 2/9=110/2;
 3/5=1,6=6,7=1,11=2,25=1,30=1,71=1,74=-5/1,2,3;
 4/5=5,16=3,69=1/1;
 5/5=2,8=3,13=1,38=5/2,8;
 7//1,2,3,16;
 1/18=20,19=15,26=3/3(-5);
 2/9=110/2;
 6/7=2,8=2,9=2,10=2,19=2,28=1/1;
 99/9=1/99;
 Leave Link    1 at Mon Jan 19 14:37:07 2026, MaxMem=  8053063680 cpu:               1.1 elap:               0.1
 (Enter /appl/Gaussian16/AVX_revB01/g16/l101.exe)
 ------------------------------
 Gaussian input prepared by ASE
 ------------------------------
 Symbolic Z-matrix:
 Charge =  0 Multiplicity = 1
 O                     4.42293   1.20889  -2.57139 
 S                     3.94952   1.64173  -1.2853 
 O                     4.25542   2.98761  -0.88462 
 C                     4.40293   0.46649  -0.00372 
 C                     5.6617    0.14855   0.44608 
 C                     5.78216  -0.80228   1.45239 
 C                     4.65127  -1.40797   1.97813 
 C                     3.38585  -1.08093   1.51691 
 C                     3.25465  -0.12922   0.51218 
 C                     2.01271   0.34177  -0.10106 
 C                     0.72423  -0.06267   0.21551 
 C                    -0.35536   0.48675  -0.47573 
 N                    -1.6631    0.07302  -0.16368 
 C                    -2.61141   0.99346   0.29956 
 C                    -2.29813   2.3246    0.54279 
 C                    -3.2615    3.20799   1.00594 
 C                    -4.5495    2.77395   1.24508 
 C                    -4.86914   1.4401    1.04163 
 C                    -3.91116   0.55453   0.58299 
 O                    -4.29431  -0.75549   0.44368 
 C                    -3.35307  -1.64758  -0.00274 
 C                    -3.75755  -2.96215  -0.1465 
 C                    -2.87547  -3.91815  -0.62694 
 C                    -1.59515  -3.54399  -0.98058 
 C                    -1.18362  -2.2276   -0.83559 
 C                    -2.04362  -1.26494  -0.32237 
 C                    -0.14432   1.44022  -1.4724 
 C                     1.142     1.85514  -1.7813 
 C                     2.19715   1.29991  -1.09595 
 H                     6.52621   0.63228   0.01994 
 H                     6.75908  -1.06997   1.82449 
 H                     4.7565   -2.14652   2.75878 
 H                     2.51597  -1.56296   1.93551 
 H                     0.54113  -0.79022   0.99127 
 H                    -1.29134   2.6752    0.37852 
 H                    -2.99028   4.23758   1.18037 
 H                    -5.30396   3.45811   1.59947 
 H                    -5.85939   1.06232   1.2394 
 H                    -4.77187  -3.21483   0.11757 
 H                    -3.19906  -4.94135  -0.73302 
 H                    -0.90327  -4.27038  -1.37795 
 H                    -0.18645  -1.94752  -1.13717 
 H                    -0.99203   1.84615  -2.00308 
 H                     1.32266   2.59036  -2.5491 
 
 ITRead=  0  0  0  0  0  0  0  0  0  0  0  0  0  0  0  0  0  0  0  0
 ITRead=  0  0  0  0  0  0  0  0  0  0  0  0  0  0  0  0  0  0  0  0
 ITRead=  0  0  0  0
 MicOpt= -1 -1 -1 -1 -1 -1 -1 -1 -1 -1 -1 -1 -1 -1 -1 -1 -1 -1 -1 -1
 MicOpt= -1 -1 -1 -1 -1 -1 -1 -1 -1 -1 -1 -1 -1 -1 -1 -1 -1 -1 -1 -1
 MicOpt= -1 -1 -1 -1
 NAtoms=     44 NQM=       44 NQMF=       0 NMMI=      0 NMMIF=      0
                NMic=       0 NMicF=      0.
                    Isotopes and Nuclear Properties:
 (Nuclear quadrupole moments (NQMom) in fm**2, nuclear magnetic moments (NMagM)
  in nuclear magnetons)

  Atom         1           2           3           4           5           6           7           8           9          10
 IAtWgt=          16          32          16          12          12          12          12          12          12          12
 AtmWgt=  15.9949146  31.9720718  15.9949146  12.0000000  12.0000000  12.0000000  12.0000000  12.0000000  12.0000000  12.0000000
 NucSpn=           0           0           0           0           0           0           0           0           0           0
 AtZEff=  -0.0000000  -0.0000000  -0.0000000  -0.0000000  -0.0000000  -0.0000000  -0.0000000  -0.0000000  -0.0000000  -0.0000000
 NQMom=    0.0000000   0.0000000   0.0000000   0.0000000   0.0000000   0.0000000   0.0000000   0.0000000   0.0000000   0.0000000
 NMagM=    0.0000000   0.0000000   0.0000000   0.0000000   0.0000000   0.0000000   0.0000000   0.0000000   0.0000000   0.0000000
 AtZNuc=   8.0000000  16.0000000   8.0000000   6.0000000   6.0000000   6.0000000   6.0000000   6.0000000   6.0000000   6.0000000

  Atom        11          12          13          14          15          16          17          18          19          20
 IAtWgt=          12          12          14          12          12          12          12          12          12          16
 AtmWgt=  12.0000000  12.0000000  14.0030740  12.0000000  12.0000000  12.0000000  12.0000000  12.0000000  12.0000000  15.9949146
 NucSpn=           0           0           2           0           0           0           0           0           0           0
 AtZEff=  -0.0000000  -0.0000000  -0.0000000  -0.0000000  -0.0000000  -0.0000000  -0.0000000  -0.0000000  -0.0000000  -0.0000000
 NQMom=    0.0000000   0.0000000   2.0440000   0.0000000   0.0000000   0.0000000   0.0000000   0.0000000   0.0000000   0.0000000
 NMagM=    0.0000000   0.0000000   0.4037610   0.0000000   0.0000000   0.0000000   0.0000000   0.0000000   0.0000000   0.0000000
 AtZNuc=   6.0000000   6.0000000   7.0000000   6.0000000   6.0000000   6.0000000   6.0000000   6.0000000   6.0000000   8.0000000

  Atom        21          22          23          24          25          26          27          28          29          30
 IAtWgt=          12          12          12          12          12          12          12          12          12           1
 AtmWgt=  12.0000000  12.0000000  12.0000000  12.0000000  12.0000000  12.0000000  12.0000000  12.0000000  12.0000000   1.0078250
 NucSpn=           0           0           0           0           0           0           0           0           0           1
 AtZEff=  -0.0000000  -0.0000000  -0.0000000  -0.0000000  -0.0000000  -0.0000000  -0.0000000  -0.0000000  -0.0000000  -0.0000000
 NQMom=    0.0000000   0.0000000   0.0000000   0.0000000   0.0000000   0.0000000   0.0000000   0.0000000   0.0000000   0.0000000
 NMagM=    0.0000000   0.0000000   0.0000000   0.0000000   0.0000000   0.0000000   0.0000000   0.0000000   0.0000000   2.7928460
 AtZNuc=   6.0000000   6.0000000   6.0000000   6.0000000   6.0000000   6.0000000   6.0000000   6.0000000   6.0000000   1.0000000

  Atom        31          32          33          34          35          36          37          38          39          40
 IAtWgt=           1           1           1           1           1           1           1           1           1           1
 AtmWgt=   1.0078250   1.0078250   1.0078250   1.0078250   1.0078250   1.0078250   1.0078250   1.0078250   1.0078250   1.0078250
 NucSpn=           1           1           1           1           1           1           1           1           1           1
 AtZEff=  -0.0000000  -0.0000000  -0.0000000  -0.0000000  -0.0000000  -0.0000000  -0.0000000  -0.0000000  -0.0000000  -0.0000000
 NQMom=    0.0000000   0.0000000   0.0000000   0.0000000   0.0000000   0.0000000   0.0000000   0.0000000   0.0000000   0.0000000
 NMagM=    2.7928460   2.7928460   2.7928460   2.7928460   2.7928460   2.7928460   2.7928460   2.7928460   2.7928460   2.7928460
 AtZNuc=   1.0000000   1.0000000   1.0000000   1.0000000   1.0000000   1.0000000   1.0000000   1.0000000   1.0000000   1.0000000

  Atom        41          42          43          44
 IAtWgt=           1           1           1           1
 AtmWgt=   1.0078250   1.0078250   1.0078250   1.0078250
 NucSpn=           1           1           1           1
 AtZEff=  -0.0000000  -0.0000000  -0.0000000  -0.0000000
 NQMom=    0.0000000   0.0000000   0.0000000   0.0000000
 NMagM=    2.7928460   2.7928460   2.7928460   2.7928460
 AtZNuc=   1.0000000   1.0000000   1.0000000   1.0000000
 Leave Link  101 at Mon Jan 19 14:37:08 2026, MaxMem=  8053063680 cpu:              10.2 elap:               0.7
 (Enter /appl/Gaussian16/AVX_revB01/g16/l103.exe)

 GradGradGradGradGradGradGradGradGradGradGradGradGradGradGradGradGradGrad
 Berny optimization.
 Initialization pass.
                           ----------------------------
                           !    Initial Parameters    !
                           ! (Angstroms and Degrees)  !
 --------------------------                            --------------------------
 ! Name  Definition              Value          Derivative Info.                !
 --------------------------------------------------------------------------------
 ! R1    R(1,2)                  1.4372         estimate D2E/DX2                !
 ! R2    R(2,3)                  1.4372         estimate D2E/DX2                !
 ! R3    R(2,4)                  1.797          estimate D2E/DX2                !
 ! R4    R(2,29)                 1.7954         estimate D2E/DX2                !
 ! R5    R(4,5)                  1.374          estimate D2E/DX2                !
 ! R6    R(4,9)                  1.3927         estimate D2E/DX2                !
 ! R7    R(5,6)                  1.3897         estimate D2E/DX2                !
 ! R8    R(5,30)                 1.0784         estimate D2E/DX2                !
 ! R9    R(6,7)                  1.3864         estimate D2E/DX2                !
 ! R10   R(6,31)                 1.0791         estimate D2E/DX2                !
 ! R11   R(7,8)                  1.386          estimate D2E/DX2                !
 ! R12   R(7,32)                 1.0798         estimate D2E/DX2                !
 ! R13   R(8,9)                  1.3901         estimate D2E/DX2                !
 ! R14   R(8,33)                 1.079          estimate D2E/DX2                !
 ! R15   R(9,10)                 1.463          estimate D2E/DX2                !
 ! R16   R(10,11)                1.3871         estimate D2E/DX2                !
 ! R17   R(10,29)                1.3935         estimate D2E/DX2                !
 ! R18   R(11,12)                1.3947         estimate D2E/DX2                !
 ! R19   R(11,34)                1.0792         estimate D2E/DX2                !
 ! R20   R(12,13)                1.4067         estimate D2E/DX2                !
 ! R21   R(12,27)                1.3953         estimate D2E/DX2                !
 ! R22   R(13,14)                1.4004         estimate D2E/DX2                !
 ! R23   R(13,26)                1.4            estimate D2E/DX2                !
 ! R24   R(14,15)                1.389          estimate D2E/DX2                !
 ! R25   R(14,19)                1.4008         estimate D2E/DX2                !
 ! R26   R(15,16)                1.3867         estimate D2E/DX2                !
 ! R27   R(15,35)                1.0787         estimate D2E/DX2                !
 ! R28   R(16,17)                1.38           estimate D2E/DX2                !
 ! R29   R(16,36)                1.0789         estimate D2E/DX2                !
 ! R30   R(17,18)                1.3866         estimate D2E/DX2                !
 ! R31   R(17,37)                1.0784         estimate D2E/DX2                !
 ! R32   R(18,19)                1.3829         estimate D2E/DX2                !
 ! R33   R(18,38)                1.0782         estimate D2E/DX2                !
 ! R34   R(19,20)                1.372          estimate D2E/DX2                !
 ! R35   R(20,21)                1.3715         estimate D2E/DX2                !
 ! R36   R(21,22)                1.3829         estimate D2E/DX2                !
 ! R37   R(21,26)                1.4012         estimate D2E/DX2                !
 ! R38   R(22,23)                1.3867         estimate D2E/DX2                !
 ! R39   R(22,39)                1.0782         estimate D2E/DX2                !
 ! R40   R(23,24)                1.38           estimate D2E/DX2                !
 ! R41   R(23,40)                1.0784         estimate D2E/DX2                !
 ! R42   R(24,25)                1.3868         estimate D2E/DX2                !
 ! R43   R(24,41)                1.079          estimate D2E/DX2                !
 ! R44   R(25,26)                1.3891         estimate D2E/DX2                !
 ! R45   R(25,42)                1.0788         estimate D2E/DX2                !
 ! R46   R(27,28)                1.3864         estimate D2E/DX2                !
 ! R47   R(27,43)                1.0794         estimate D2E/DX2                !
 ! R48   R(28,29)                1.3752         estimate D2E/DX2                !
 ! R49   R(28,44)                1.0783         estimate D2E/DX2                !
 ! A1    A(1,2,3)              117.4783         estimate D2E/DX2                !
 ! A2    A(1,2,4)              110.9844         estimate D2E/DX2                !
 ! A3    A(1,2,29)             111.0104         estimate D2E/DX2                !
 ! A4    A(3,2,4)              111.095          estimate D2E/DX2                !
 ! A5    A(3,2,29)             110.8938         estimate D2E/DX2                !
 ! A6    A(4,2,29)              92.6677         estimate D2E/DX2                !
 ! A7    A(2,4,5)              128.0213         estimate D2E/DX2                !
 ! A8    A(2,4,9)              109.6266         estimate D2E/DX2                !
 ! A9    A(5,4,9)              122.3516         estimate D2E/DX2                !
 ! A10   A(4,5,6)              118.3452         estimate D2E/DX2                !
 ! A11   A(4,5,30)             120.0834         estimate D2E/DX2                !
 ! A12   A(6,5,30)             121.5714         estimate D2E/DX2                !
 ! A13   A(5,6,7)              120.185          estimate D2E/DX2                !
 ! A14   A(5,6,31)             119.8608         estimate D2E/DX2                !
 ! A15   A(7,6,31)             119.9542         estimate D2E/DX2                !
 ! A16   A(6,7,8)              121.0281         estimate D2E/DX2                !
 ! A17   A(6,7,32)             119.5684         estimate D2E/DX2                !
 ! A18   A(8,7,32)             119.4034         estimate D2E/DX2                !
 ! A19   A(7,8,9)              119.2241         estimate D2E/DX2                !
 ! A20   A(7,8,33)             120.1021         estimate D2E/DX2                !
 ! A21   A(9,8,33)             120.6738         estimate D2E/DX2                !
 ! A22   A(4,9,8)              118.8658         estimate D2E/DX2                !
 ! A23   A(4,9,10)             114.0136         estimate D2E/DX2                !
 ! A24   A(8,9,10)             127.1201         estimate D2E/DX2                !
 ! A25   A(9,10,11)            126.8004         estimate D2E/DX2                !
 ! A26   A(9,10,29)            114.096          estimate D2E/DX2                !
 ! A27   A(11,10,29)           119.1028         estimate D2E/DX2                !
 ! A28   A(10,11,12)           119.4106         estimate D2E/DX2                !
 ! A29   A(10,11,34)           121.2141         estimate D2E/DX2                !
 ! A30   A(12,11,34)           119.3741         estimate D2E/DX2                !
 ! A31   A(11,12,13)           119.5915         estimate D2E/DX2                !
 ! A32   A(11,12,27)           120.4054         estimate D2E/DX2                !
 ! A33   A(13,12,27)           120.003          estimate D2E/DX2                !
 ! A34   A(12,13,14)           120.6383         estimate D2E/DX2                !
 ! A35   A(12,13,26)           120.5709         estimate D2E/DX2                !
 ! A36   A(14,13,26)           118.7882         estimate D2E/DX2                !
 ! A37   A(13,14,15)           122.3504         estimate D2E/DX2                !
 ! A38   A(13,14,19)           119.2945         estimate D2E/DX2                !
 ! A39   A(15,14,19)           118.3025         estimate D2E/DX2                !
 ! A40   A(14,15,16)           120.8177         estimate D2E/DX2                !
 ! A41   A(14,15,35)           119.693          estimate D2E/DX2                !
 ! A42   A(16,15,35)           119.4869         estimate D2E/DX2                !
 ! A43   A(15,16,17)           120.3911         estimate D2E/DX2                !
 ! A44   A(15,16,36)           119.1617         estimate D2E/DX2                !
 ! A45   A(17,16,36)           120.4468         estimate D2E/DX2                !
 ! A46   A(16,17,18)           119.4892         estimate D2E/DX2                !
 ! A47   A(16,17,37)           120.6887         estimate D2E/DX2                !
 ! A48   A(18,17,37)           119.8176         estimate D2E/DX2                !
 ! A49   A(17,18,19)           120.3309         estimate D2E/DX2                !
 ! A50   A(17,18,38)           121.4576         estimate D2E/DX2                !
 ! A51   A(19,18,38)           118.2104         estimate D2E/DX2                !
 ! A52   A(14,19,18)           120.6113         estimate D2E/DX2                !
 ! A53   A(14,19,20)           122.53           estimate D2E/DX2                !
 ! A54   A(18,19,20)           116.8518         estimate D2E/DX2                !
 ! A55   A(19,20,21)           117.5461         estimate D2E/DX2                !
 ! A56   A(20,21,22)           116.8346         estimate D2E/DX2                !
 ! A57   A(20,21,26)           122.5468         estimate D2E/DX2                !
 ! A58   A(22,21,26)           120.6126         estimate D2E/DX2                !
 ! A59   A(21,22,23)           120.3532         estimate D2E/DX2                !
 ! A60   A(21,22,39)           118.1968         estimate D2E/DX2                !
 ! A61   A(23,22,39)           121.4486         estimate D2E/DX2                !
 ! A62   A(22,23,24)           119.4751         estimate D2E/DX2                !
 ! A63   A(22,23,40)           119.8249         estimate D2E/DX2                !
 ! A64   A(24,23,40)           120.6949         estimate D2E/DX2                !
 ! A65   A(23,24,25)           120.3912         estimate D2E/DX2                !
 ! A66   A(23,24,41)           120.4486         estimate D2E/DX2                !
 ! A67   A(25,24,41)           119.1594         estimate D2E/DX2                !
 ! A68   A(24,25,26)           120.8446         estimate D2E/DX2                !
 ! A69   A(24,25,42)           119.4403         estimate D2E/DX2                !
 ! A70   A(26,25,42)           119.7108         estimate D2E/DX2                !
 ! A71   A(13,26,21)           119.2828         estimate D2E/DX2                !
 ! A72   A(13,26,25)           122.4035         estimate D2E/DX2                !
 ! A73   A(21,26,25)           118.2683         estimate D2E/DX2                !
 ! A74   A(12,27,28)           120.2633         estimate D2E/DX2                !
 ! A75   A(12,27,43)           119.2997         estimate D2E/DX2                !
 ! A76   A(28,27,43)           120.436          estimate D2E/DX2                !
 ! A77   A(27,28,29)           118.684          estimate D2E/DX2                !
 ! A78   A(27,28,44)           121.2083         estimate D2E/DX2                !
 ! A79   A(29,28,44)           120.1047         estimate D2E/DX2                !
 ! A80   A(2,29,10)            109.5958         estimate D2E/DX2                !
 ! A81   A(2,29,28)            128.2743         estimate D2E/DX2                !
 ! A82   A(10,29,28)           122.1296         estimate D2E/DX2                !
 ! D1    D(1,2,4,5)             66.0058         estimate D2E/DX2                !
 ! D2    D(1,2,4,9)           -113.7348         estimate D2E/DX2                !
 ! D3    D(3,2,4,5)            -66.6542         estimate D2E/DX2                !
 ! D4    D(3,2,4,9)            113.6052         estimate D2E/DX2                !
 ! D5    D(29,2,4,5)           179.7275         estimate D2E/DX2                !
 ! D6    D(29,2,4,9)            -0.0131         estimate D2E/DX2                !
 ! D7    D(1,2,29,10)          113.8188         estimate D2E/DX2                !
 ! D8    D(1,2,29,28)          -66.3733         estimate D2E/DX2                !
 ! D9    D(3,2,29,10)         -113.6743         estimate D2E/DX2                !
 ! D10   D(3,2,29,28)           66.1336         estimate D2E/DX2                !
 ! D11   D(4,2,29,10)            0.1199         estimate D2E/DX2                !
 ! D12   D(4,2,29,28)          179.9278         estimate D2E/DX2                !
 ! D13   D(2,4,5,6)           -179.7368         estimate D2E/DX2                !
 ! D14   D(2,4,5,30)             0.2523         estimate D2E/DX2                !
 ! D15   D(9,4,5,6)             -0.026          estimate D2E/DX2                !
 ! D16   D(9,4,5,30)           179.9631         estimate D2E/DX2                !
 ! D17   D(2,4,9,8)            179.6701         estimate D2E/DX2                !
 ! D18   D(2,4,9,10)            -0.0949         estimate D2E/DX2                !
 ! D19   D(5,4,9,8)             -0.088          estimate D2E/DX2                !
 ! D20   D(5,4,9,10)          -179.8531         estimate D2E/DX2                !
 ! D21   D(4,5,6,7)              0.0995         estimate D2E/DX2                !
 ! D22   D(4,5,6,31)          -179.9538         estimate D2E/DX2                !
 ! D23   D(30,5,6,7)          -179.8895         estimate D2E/DX2                !
 ! D24   D(30,5,6,31)            0.0572         estimate D2E/DX2                !
 ! D25   D(5,6,7,8)             -0.0595         estimate D2E/DX2                !
 ! D26   D(5,6,7,32)           179.9115         estimate D2E/DX2                !
 ! D27   D(31,6,7,8)           179.9938         estimate D2E/DX2                !
 ! D28   D(31,6,7,32)           -0.0352         estimate D2E/DX2                !
 ! D29   D(6,7,8,9)             -0.0561         estimate D2E/DX2                !
 ! D30   D(6,7,8,33)           179.8877         estimate D2E/DX2                !
 ! D31   D(32,7,8,9)           179.9729         estimate D2E/DX2                !
 ! D32   D(32,7,8,33)           -0.0833         estimate D2E/DX2                !
 ! D33   D(7,8,9,4)              0.1273         estimate D2E/DX2                !
 ! D34   D(7,8,9,10)           179.8582         estimate D2E/DX2                !
 ! D35   D(33,8,9,4)          -179.8162         estimate D2E/DX2                !
 ! D36   D(33,8,9,10)           -0.0853         estimate D2E/DX2                !
 ! D37   D(4,9,10,11)         -179.4704         estimate D2E/DX2                !
 ! D38   D(4,9,10,29)            0.1957         estimate D2E/DX2                !
 ! D39   D(8,9,10,11)            0.7876         estimate D2E/DX2                !
 ! D40   D(8,9,10,29)         -179.5463         estimate D2E/DX2                !
 ! D41   D(9,10,11,12)        -179.7165         estimate D2E/DX2                !
 ! D42   D(9,10,11,34)           0.6735         estimate D2E/DX2                !
 ! D43   D(29,10,11,12)          0.6323         estimate D2E/DX2                !
 ! D44   D(29,10,11,34)       -178.9776         estimate D2E/DX2                !
 ! D45   D(9,10,29,2)           -0.1957         estimate D2E/DX2                !
 ! D46   D(9,10,29,28)         179.9824         estimate D2E/DX2                !
 ! D47   D(11,10,29,2)         179.4983         estimate D2E/DX2                !
 ! D48   D(11,10,29,28)         -0.3236         estimate D2E/DX2                !
 ! D49   D(10,11,12,13)        179.5947         estimate D2E/DX2                !
 ! D50   D(10,11,12,27)         -0.3403         estimate D2E/DX2                !
 ! D51   D(34,11,12,13)         -0.7881         estimate D2E/DX2                !
 ! D52   D(34,11,12,27)        179.2769         estimate D2E/DX2                !
 ! D53   D(11,12,13,14)        119.419          estimate D2E/DX2                !
 ! D54   D(11,12,13,26)        -61.1675         estimate D2E/DX2                !
 ! D55   D(27,12,13,14)        -60.6458         estimate D2E/DX2                !
 ! D56   D(27,12,13,26)        118.7677         estimate D2E/DX2                !
 ! D57   D(11,12,27,28)         -0.2794         estimate D2E/DX2                !
 ! D58   D(11,12,27,43)        179.3738         estimate D2E/DX2                !
 ! D59   D(13,12,27,28)        179.7859         estimate D2E/DX2                !
 ! D60   D(13,12,27,43)         -0.5609         estimate D2E/DX2                !
 ! D61   D(12,13,14,15)         -3.6254         estimate D2E/DX2                !
 ! D62   D(12,13,14,19)        179.0578         estimate D2E/DX2                !
 ! D63   D(26,13,14,15)        176.9508         estimate D2E/DX2                !
 ! D64   D(26,13,14,19)         -0.366          estimate D2E/DX2                !
 ! D65   D(12,13,26,21)        179.9696         estimate D2E/DX2                !
 ! D66   D(12,13,26,25)         -2.5236         estimate D2E/DX2                !
 ! D67   D(14,13,26,21)         -0.6062         estimate D2E/DX2                !
 ! D68   D(14,13,26,25)        176.9006         estimate D2E/DX2                !
 ! D69   D(13,14,15,16)       -179.7692         estimate D2E/DX2                !
 ! D70   D(13,14,15,35)         -0.3327         estimate D2E/DX2                !
 ! D71   D(19,14,15,16)         -2.427          estimate D2E/DX2                !
 ! D72   D(19,14,15,35)        177.0095         estimate D2E/DX2                !
 ! D73   D(13,14,19,18)       -179.9922         estimate D2E/DX2                !
 ! D74   D(13,14,19,20)          0.9885         estimate D2E/DX2                !
 ! D75   D(15,14,19,18)          2.5822         estimate D2E/DX2                !
 ! D76   D(15,14,19,20)       -176.4371         estimate D2E/DX2                !
 ! D77   D(14,15,16,17)          0.5879         estimate D2E/DX2                !
 ! D78   D(14,15,16,36)       -179.6415         estimate D2E/DX2                !
 ! D79   D(35,15,16,17)       -178.8497         estimate D2E/DX2                !
 ! D80   D(35,15,16,36)          0.9209         estimate D2E/DX2                !
 ! D81   D(15,16,17,18)          1.1519         estimate D2E/DX2                !
 ! D82   D(15,16,17,37)       -179.6198         estimate D2E/DX2                !
 ! D83   D(36,16,17,18)       -178.6158         estimate D2E/DX2                !
 ! D84   D(36,16,17,37)          0.6125         estimate D2E/DX2                !
 ! D85   D(16,17,18,19)         -0.9909         estimate D2E/DX2                !
 ! D86   D(16,17,18,38)        178.6199         estimate D2E/DX2                !
 ! D87   D(37,17,18,19)        179.774          estimate D2E/DX2                !
 ! D88   D(37,17,18,38)         -0.6152         estimate D2E/DX2                !
 ! D89   D(17,18,19,14)         -0.9002         estimate D2E/DX2                !
 ! D90   D(17,18,19,20)        178.1731         estimate D2E/DX2                !
 ! D91   D(38,18,19,14)        179.4766         estimate D2E/DX2                !
 ! D92   D(38,18,19,20)         -1.4501         estimate D2E/DX2                !
 ! D93   D(14,19,20,21)         -0.57           estimate D2E/DX2                !
 ! D94   D(18,19,20,21)       -179.624          estimate D2E/DX2                !
 ! D95   D(19,20,21,22)       -179.5695         estimate D2E/DX2                !
 ! D96   D(19,20,21,26)         -0.4633         estimate D2E/DX2                !
 ! D97   D(20,21,22,23)        178.265          estimate D2E/DX2                !
 ! D98   D(20,21,22,39)         -1.3067         estimate D2E/DX2                !
 ! D99   D(26,21,22,23)         -0.8595         estimate D2E/DX2                !
 ! D100  D(26,21,22,39)        179.5688         estimate D2E/DX2                !
 ! D101  D(20,21,26,13)          1.0555         estimate D2E/DX2                !
 ! D102  D(20,21,26,25)       -176.5545         estimate D2E/DX2                !
 ! D103  D(22,21,26,13)       -179.8713         estimate D2E/DX2                !
 ! D104  D(22,21,26,25)          2.5187         estimate D2E/DX2                !
 ! D105  D(21,22,23,24)         -0.9894         estimate D2E/DX2                !
 ! D106  D(21,22,23,40)        179.8275         estimate D2E/DX2                !
 ! D107  D(39,22,23,24)        178.5682         estimate D2E/DX2                !
 ! D108  D(39,22,23,40)         -0.6149         estimate D2E/DX2                !
 ! D109  D(22,23,24,25)          1.1312         estimate D2E/DX2                !
 ! D110  D(22,23,24,41)       -178.5571         estimate D2E/DX2                !
 ! D111  D(40,23,24,25)       -179.693          estimate D2E/DX2                !
 ! D112  D(40,23,24,41)          0.6187         estimate D2E/DX2                !
 ! D113  D(23,24,25,26)          0.5858         estimate D2E/DX2                !
 ! D114  D(23,24,25,42)       -178.6591         estimate D2E/DX2                !
 ! D115  D(41,24,25,26)       -179.7219         estimate D2E/DX2                !
 ! D116  D(41,24,25,42)          1.0332         estimate D2E/DX2                !
 ! D117  D(24,25,26,13)       -179.914          estimate D2E/DX2                !
 ! D118  D(24,25,26,21)         -2.3831         estimate D2E/DX2                !
 ! D119  D(42,25,26,13)         -0.6712         estimate D2E/DX2                !
 ! D120  D(42,25,26,21)        176.8598         estimate D2E/DX2                !
 ! D121  D(12,27,28,29)          0.588          estimate D2E/DX2                !
 ! D122  D(12,27,28,44)        179.9515         estimate D2E/DX2                !
 ! D123  D(43,27,28,29)       -179.0612         estimate D2E/DX2                !
 ! D124  D(43,27,28,44)          0.3023         estimate D2E/DX2                !
 ! D125  D(27,28,29,2)         179.9235         estimate D2E/DX2                !
 ! D126  D(27,28,29,10)         -0.2902         estimate D2E/DX2                !
 ! D127  D(44,28,29,2)           0.5528         estimate D2E/DX2                !
 ! D128  D(44,28,29,10)       -179.6609         estimate D2E/DX2                !
 --------------------------------------------------------------------------------
 Trust Radius=3.00D-01 FncErr=1.00D-07 GrdErr=1.00D-06 EigMax=2.50D+02 EigMin=1.00D-04
 Number of steps in this run=    264 maximum allowed number of steps=    264.
 GradGradGradGradGradGradGradGradGradGradGradGradGradGradGradGradGradGrad

 Leave Link  103 at Mon Jan 19 14:37:08 2026, MaxMem=  8053063680 cpu:               0.2 elap:               0.1
 (Enter /appl/Gaussian16/AVX_revB01/g16/l202.exe)
                          Input orientation:                          
 ---------------------------------------------------------------------
 Center     Atomic      Atomic             Coordinates (Angstroms)
 Number     Number       Type             X           Y           Z
 ---------------------------------------------------------------------
      1          8           0        4.422928    1.208889   -2.571386
      2         16           0        3.949519    1.641734   -1.285300
      3          8           0        4.255425    2.987615   -0.884619
      4          6           0        4.402935    0.466488   -0.003718
      5          6           0        5.661702    0.148548    0.446080
      6          6           0        5.782162   -0.802276    1.452394
      7          6           0        4.651267   -1.407973    1.978128
      8          6           0        3.385847   -1.080931    1.516914
      9          6           0        3.254649   -0.129217    0.512184
     10          6           0        2.012706    0.341773   -0.101060
     11          6           0        0.724229   -0.062669    0.215514
     12          6           0       -0.355364    0.486750   -0.475731
     13          7           0       -1.663100    0.073024   -0.163678
     14          6           0       -2.611411    0.993458    0.299555
     15          6           0       -2.298127    2.324601    0.542787
     16          6           0       -3.261498    3.207990    1.005941
     17          6           0       -4.549500    2.773946    1.245081
     18          6           0       -4.869137    1.440104    1.041625
     19          6           0       -3.911164    0.554534    0.582988
     20          8           0       -4.294307   -0.755494    0.443680
     21          6           0       -3.353068   -1.647580   -0.002737
     22          6           0       -3.757550   -2.962151   -0.146499
     23          6           0       -2.875469   -3.918154   -0.626939
     24          6           0       -1.595154   -3.543988   -0.980580
     25          6           0       -1.183620   -2.227599   -0.835588
     26          6           0       -2.043617   -1.264941   -0.322372
     27          6           0       -0.144315    1.440215   -1.472399
     28          6           0        1.141999    1.855143   -1.781296
     29          6           0        2.197145    1.299911   -1.095955
     30          1           0        6.526207    0.632283    0.019945
     31          1           0        6.759077   -1.069972    1.824494
     32          1           0        4.756504   -2.146518    2.758785
     33          1           0        2.515974   -1.562962    1.935505
     34          1           0        0.541128   -0.790217    0.991274
     35          1           0       -1.291339    2.675203    0.378522
     36          1           0       -2.990278    4.237583    1.180371
     37          1           0       -5.303960    3.458109    1.599468
     38          1           0       -5.859390    1.062317    1.239398
     39          1           0       -4.771866   -3.214834    0.117566
     40          1           0       -3.199062   -4.941353   -0.733022
     41          1           0       -0.903275   -4.270380   -1.377953
     42          1           0       -0.186455   -1.947520   -1.137169
     43          1           0       -0.992034    1.846154   -2.003075
     44          1           0        1.322659    2.590359   -2.549100
 ---------------------------------------------------------------------
                    Distance matrix (angstroms):
                    1          2          3          4          5
     1  O    0.000000
     2  S    1.437181   0.000000
     3  O    2.457052   1.437191   0.000000
     4  C    2.672916   1.797010   2.674664   0.000000
     5  C    3.429867   2.856370   3.436375   1.374008   0.000000
     6  C    4.699267   4.102040   4.706998   2.373245   1.389692
     7  C    5.253398   4.521408   5.260533   2.739158   2.406430
     8  C    4.799272   3.947535   4.803810   2.396100   2.799611
     9  C    3.558625   2.617262   3.559108   1.392688   2.423928
    10  C    3.558592   2.616021   3.555873   2.395459   3.694844
    11  C    4.802504   3.944607   4.794149   3.723029   4.947364
    12  C    5.267384   4.530057   5.261263   4.781696   6.096655
    13  N    6.642815   5.934676   6.636530   6.080886   7.350526
    14  C    7.600700   6.780695   7.247921   7.040647   8.317435
    15  C    7.491026   6.545326   6.739890   6.975348   8.252480
    16  C    8.708851   7.726689   7.754155   8.202364   9.449716
    17  C    9.875186   8.939691   9.061346   9.328985  10.573541
    18  C    9.972452   9.122715   9.453192   9.381470  10.626446
    19  C    8.935063   8.152475   8.646787   8.335239   9.582449
    20  O    9.430780   8.757668   9.427256   8.794056   9.996970
    21  C    8.673148   8.111247   8.952759   8.038959   9.202912
    22  C    9.497257   9.049395  10.007612   8.852653   9.937299
    23  C    9.128749   8.827585   9.930040   8.519898   9.516971
    24  C    7.831847   7.597892   8.769283   7.281157   8.266326
    25  C    6.801164   6.443842   7.535520   6.257771   7.358476
    26  C    7.279705   6.730057   7.620910   6.682620   7.871493
    27  C    4.703297   4.103059   4.700813   4.876746   6.249704
    28  C    3.436042   2.858972   3.432192   3.965079   5.319904
    29  C    2.671946   1.795414   2.670116   2.598670   3.963163
    30  H    3.386924   3.059734   3.394448   2.129867   1.078406
    31  H    5.474903   4.991771   5.483756   3.354768   2.142206
    32  H    6.307199   5.599706   6.315441   3.818931   3.381614
    33  H    5.624207   4.764317   5.629080   3.382288   3.878564
    34  H    5.635366   4.765953   5.620230   4.181252   5.234385
    35  H    6.595824   5.594904   5.697343   6.119582   7.398197
    36  H    8.843319   7.808889   7.637199   8.383485   9.597715
    37  H   10.819768   9.861439   9.888068  10.283181  11.512135
    38  H   10.966751  10.145172  10.513215  10.354499  11.584467
    39  H   10.551968  10.080518  10.998487   9.886546  10.967205
    40  H    9.964929   9.733667  10.883974   9.357723  10.286424
    41  H    7.734023   7.649267   8.918186   7.244466   8.121141
    42  H    5.767696   5.478227   6.644519   5.307979   6.411015
    43  H    5.481870   4.997593   5.485408   5.916637   7.290571
    44  H    3.394205   3.065530   3.395501   4.525251   5.810408
                    6          7          8          9         10
     6  C    0.000000
     7  C    1.386430   0.000000
     8  C    2.413325   1.385989   0.000000
     9  C    2.779447   2.394734   1.390127   0.000000
    10  C    4.234485   3.787696   2.554886   1.462984   0.000000
    11  C    5.259237   4.509798   3.132843   2.548620   1.387070
    12  C    6.561134   5.888783   4.519394   3.793097   2.401906
    13  N    7.668752   6.830221   5.444985   4.968092   3.686149
    14  C    8.660586   7.831409   6.461590   5.976308   4.686965
    15  C    8.711820   8.017880   6.697322   6.070871   4.788468
    16  C    9.902996   9.212172   7.927366   7.337637   6.103923
    17  C   10.935062  10.133111   8.826307   8.358842   7.126718
    18  C   10.892528   9.981316   8.644436   8.290897   7.061998
    19  C    9.826360   8.894553   7.536135   7.198708   5.967028
    20  O   10.126940   9.099646   7.761604   7.575199   6.424885
    21  C    9.288938   8.249280   6.931334   6.799447   5.723523
    22  C    9.910985   8.811227   7.571925   7.591463   6.649348
    23  C    9.433287   8.350997   7.200696   7.296026   6.505212
    24  C    8.237787   7.234244   6.092167   6.116338   5.374881
    25  C    7.469171   6.529524   5.265846   5.090965   4.166257
    26  C    8.037827   7.080553   5.735495   5.482515   4.368554
    27  C    6.978991   6.558653   5.268227   4.237292   2.782065
    28  C    6.248979   6.090662   4.953137   3.696082   2.423141
    29  C    4.874999   4.775493   3.729410   2.397255   1.393507
    30  H    2.159508   3.393011   3.877871   3.394890   4.524459
    31  H    1.079112   2.140259   3.387242   3.858522   5.313080
    32  H    2.136731   1.079791   2.134578   3.372282   4.679609
    33  H    3.388218   2.141335   1.079005   2.151071   2.833530
    34  H    5.261293   4.271855   2.907445   2.833662   2.154098
    35  H    7.954902   7.385502   6.105780   5.343093   4.073279
    36  H   10.120764   9.534250   8.309922   7.649478   6.469099
    37  H   11.877483  11.087322   9.804205   9.343494   8.132463
    38  H   11.791853  10.822290   9.494468   9.220319   8.017849
    39  H   10.908240   9.773529   8.547513   8.608234   7.663398
    40  H   10.127704   9.025673   7.957769   8.146016   7.448042
    41  H    8.045724   7.092925   6.078602   6.165239   5.604048
    42  H    6.606194   5.779251   4.533924   4.227030   3.339265
    43  H    8.052588   7.634538   6.334350   5.316289   3.861254
    44  H    6.885426   6.896528   5.853852   4.527708   3.394879
                   11         12         13         14         15
    11  C    0.000000
    12  C    1.394706   0.000000
    13  N    2.421062   1.406669   0.000000
    14  C    3.499852   2.438763   1.400385   0.000000
    15  C    3.865334   2.861713   2.443758   1.388974   0.000000
    16  C    5.216130   4.248071   3.708220   2.413658   1.386713
    17  C    6.076070   5.077719   4.196533   2.796488   2.400794
    18  C    5.850345   4.856480   3.687863   2.418158   2.764284
    19  C    4.690719   3.710686   2.417262   1.400838   2.395128
    20  O    5.071269   4.231283   2.824637   2.431408   3.671721
    21  C    4.379946   3.710164   2.417099   2.759804   4.145928
    22  C    5.350177   4.855737   3.687723   4.142396   5.527637
    23  C    5.341565   5.077103   4.196898   5.005203   6.377584
    24  C    4.350835   4.247211   3.708736   4.822857   6.103700
    25  C    3.071095   2.860629   2.444224   3.701668   4.885138
    26  C    3.065249   2.437650   1.400046   2.410302   3.701093
    27  C    2.421174   1.395344   2.426658   3.070175   3.079289
    28  C    2.799962   2.412280   3.696109   4.377274   4.178064
    29  C    2.397093   2.749766   4.156427   5.016330   4.893152
    30  H    5.846721   6.900935   8.210434   9.149026   9.000343
    31  H    6.326362   7.637388   8.728822   9.715411   9.756989
    32  H    5.202873   6.597530   7.394489   8.378152   8.641144
    33  H    2.901654   4.273168   4.954561   5.958329   6.342584
    34  H    1.079192   2.141600   2.633955   3.687611   4.238467
    35  H    3.403679   2.528858   2.683939   2.139414   1.078669
    36  H    5.763738   4.873827   4.572901   3.382857   2.131921
    37  H    7.116901   6.133843   5.274785   3.874803   3.381782
    38  H    6.757069   5.793724   4.533892   3.381925   3.842033
    39  H    6.336624   5.793032   4.533601   4.733964   6.081574
    40  H    6.331942   6.133280   5.275160   6.052565   7.431922
    41  H    4.784635   4.872832   4.573505   5.782711   7.009181
    42  H    2.492340   2.528182   2.685287   4.073567   5.052963
    43  H    3.392831   2.141519   2.641534   2.941357   2.901070
    44  H    3.878114   3.397027   4.576240   5.112908   4.768698
                   16         17         18         19         20
    16  C    0.000000
    17  C    1.380047   0.000000
    18  C    2.389811   1.386614   0.000000
    19  C    2.764377   2.402422   1.382857   0.000000
    20  O    4.134251   3.628266   2.347044   1.371998   0.000000
    21  C    4.960078   4.747462   3.594850   2.346029   1.371509
    22  C    6.296413   5.955375   4.693305   3.594833   2.346434
    23  C    7.321014   7.147800   5.955648   4.747792   3.627912
    24  C    7.232716   7.321067   6.296781   4.960497   4.133963
    25  C    6.103641   6.377601   5.528021   4.146338   3.671511
    26  C    4.822319   5.004895   4.142623   2.760055   2.431456
    27  C    4.357066   5.345016   5.352033   4.381574   5.070989
    28  C    5.384206   6.511246   6.653939   5.728515   6.428014
    29  C    6.152684   7.291807   7.383850   6.378548   6.980982
    30  H   10.168856  11.347201  11.469536  10.452836  10.917371
    31  H   10.926249  11.958066  11.921775  10.864363  11.143735
    32  H    9.799570  10.635036  10.414675   9.335858   9.445202
    33  H    7.550182   8.319038   8.022300   6.900811   7.018367
    34  H    5.517775   6.219500   5.852165   4.668828   4.866467
    35  H    2.135192   3.372876   3.842631   3.376763   4.559797
    36  H    1.078911   2.139531   3.372722   3.843142   5.212871
    37  H    2.141608   1.078369   2.138365   3.376960   4.484384
    38  H    3.377492   2.155346   1.078164   2.117617   2.527269
    39  H    6.657559   6.098051   4.746767   3.894299   2.526414
    40  H    8.333048   8.078516   6.830924   5.695942   4.483928
    41  H    8.195741   8.354507   7.361524   6.014356   5.212664
    42  H    6.374017   6.855912   6.176622   4.805484   4.560094
    43  H    4.007399   4.905802   4.946413   4.108202   4.864174
    44  H    5.833891   6.993695   7.249464   6.430199   7.190394
                   21         22         23         24         25
    21  C    0.000000
    22  C    1.382885   0.000000
    23  C    2.402756   1.386662   0.000000
    24  C    2.764562   2.389599   1.379953   0.000000
    25  C    2.395113   2.763970   2.400805   1.386818   0.000000
    26  C    1.401157   2.418475   2.797191   2.414210   1.389135
    27  C    4.689401   5.847590   6.073395   5.214317   3.865042
    28  C    5.969754   7.062893   7.127661   6.106044   4.792875
    29  C    6.378690   7.384107   7.292434   6.152902   4.892922
    30  H   10.138952  10.895105  10.465011   9.186881   8.267544
    31  H   10.292127  10.865754  10.341477   9.153271   8.455919
    32  H    8.581381   9.032998   8.535153   7.501955   6.943425
    33  H    6.181391   6.756447   6.417220   5.415662   4.669870
    34  H    4.109488   4.948784   4.906704   4.004393   2.894520
    35  H    4.804429   6.175565   6.855128   6.373210   5.052043
    36  H    6.013859   7.361077   8.354376   8.195665   7.009043
    37  H    5.695709   6.830778   8.078596   8.333143   7.431957
    38  H    3.894623   4.747081   6.098532   6.658082   6.082100
    39  H    2.117486   1.078153   2.155288   3.377242   3.841698
    40  H    3.377274   2.138495   1.078380   2.141597   3.381862
    41  H    3.843408   3.372659   2.139541   1.079002   2.132066
    42  H    3.377031   3.842346   3.372615   2.134868   1.078765
    43  H    4.667120   5.849337   6.218386   5.519319   4.242075
    44  H    6.804889   7.900088   7.979958   6.971664   5.694759
                   26         27         28         29         30
    26  C    0.000000
    27  C    3.499683   0.000000
    28  C    4.691645   1.386430   0.000000
    29  C    5.016070   2.375675   1.375248   0.000000
    30  H    8.783992   6.883002   5.807714   4.520148   0.000000
    31  H    9.062806   8.051544   7.287632   5.912410   2.491646
    32  H    7.517469   7.401730   7.049133   5.769507   4.284254
    33  H    5.096733   5.264031   5.233150   4.181799   4.956858
    34  H    2.938015   3.393280   3.878933   3.386377   6.228014
    35  H    4.072090   2.503351   3.355361   4.029272   8.088023
    36  H    5.782056   4.791864   5.614553   6.381295  10.242473
    37  H    6.052315   6.334840   7.453151   8.257706  12.265115
    38  H    4.734489   6.337091   7.666330   8.391548  12.452911
    39  H    3.382155   6.753643   8.017739   8.391821  11.935505
    40  H    3.875525   7.113549   8.132408   8.258580  11.234466
    41  H    3.383384   5.761583   6.470538   6.381243   9.010406
    42  H    2.139827   3.404542   4.079208   4.028530   7.283826
    43  H    3.689106   1.079365   2.145545   3.360374   7.879723
    44  H    5.581530   2.152703   1.078287   2.131106   6.124620
                   31         32         33         34         35
    31  H    0.000000
    32  H    2.458078   0.000000
    33  H    4.273088   2.457296   0.000000
    34  H    6.279761   4.767918   2.321362   0.000000
    35  H    8.995908   8.092654   5.906088   3.967687   0.000000
    36  H   11.119125  10.161730   8.033390   6.146980   2.443437
    37  H   12.886855  11.574490   9.299218   7.251430   4.266706
    38  H   12.810726  11.193854   8.804736   6.667839   4.920325
    39  H   11.852285   9.945208   7.690656   5.905086   6.846511
    40  H   10.986037   9.126601   7.155152   5.847577   7.930125
    41  H    8.899995   7.325058   5.477260   4.450962   7.174742
    42  H    7.601444   6.296896   4.110028   2.529624   4.988754
    43  H    9.123256   8.465367   6.280176   4.274011   2.539471
    44  H    7.879149   7.899553   6.227822   4.957150   3.925704
                   36         37         38         39         40
    36  H    0.000000
    37  H    2.477165   0.000000
    38  H    4.279907   2.485553   0.000000
    39  H    7.735770   6.856190   4.553597   0.000000
    40  H    9.378568   8.967836   6.856519   2.485574   0.000000
    41  H    9.126118   9.378732   7.736359   4.279807   2.477252
    42  H    7.175508   7.930881   6.847582   4.920004   4.266400
    43  H    4.454912   5.845462   5.900779   6.663171   7.249432
    44  H    5.934958   7.866110   8.262533   8.829191   8.970552
                   41         42         43         44
    41  H    0.000000
    42  H    2.442843   0.000000
    43  H    6.149035   3.973753   0.000000
    44  H    7.307264   4.986314   2.491944   0.000000
 Stoichiometry    C24H15NO3S
 Framework group  C1[X(C24H15NO3S)]
 Deg. of freedom   126
 Full point group                 C1      NOp   1
 Largest Abelian subgroup         C1      NOp   1
 Largest concise Abelian subgroup C1      NOp   1
                         Standard orientation:                         
 ---------------------------------------------------------------------
 Center     Atomic      Atomic             Coordinates (Angstroms)
 Number     Number       Type             X           Y           Z
 ---------------------------------------------------------------------
      1          8           0       -4.347167   -0.684664   -2.164401
      2         16           0       -3.845079   -1.098347   -0.882893
      3          8           0       -4.266637   -2.380009   -0.387768
      4          6           0       -4.093270    0.184948    0.350314
      5          6           0       -5.281810    0.661234    0.848735
      6          6           0       -5.239919    1.671044    1.802556
      7          6           0       -4.021585    2.176771    2.229273
      8          6           0       -2.828095    1.690126    1.719644
      9          6           0       -2.859325    0.678346    0.766869
     10          6           0       -1.713561    0.043381    0.115434
     11          6           0       -0.372759    0.321189    0.336877
     12          6           0        0.598850   -0.378049   -0.378836
     13          7           0        1.959475   -0.093360   -0.163496
     14          6           0        2.831540   -1.085974    0.300506
     15          6           0        2.394675   -2.360472    0.638225
     16          6           0        3.285598   -3.317956    1.099150
     17          6           0        4.624364   -3.014779    1.241697
     18          6           0        5.070230   -1.736205    0.943120
     19          6           0        4.185170   -0.776907    0.486274
     20          8           0        4.695441    0.474482    0.249568
     21          6           0        3.828418    1.439069   -0.196393
     22          6           0        4.360080    2.692409   -0.438971
     23          6           0        3.556468    3.712217   -0.925829
     24          6           0        2.224719    3.461629   -1.186444
     25          6           0        1.685940    2.207316   -0.942147
     26          6           0        2.468916    1.185029   -0.421022
     27          6           0        0.228225   -1.353878   -1.304784
     28          6           0       -1.111074   -1.641926   -1.518077
     29          6           0       -2.058161   -0.939891   -0.809924
     30          1           0       -6.216816    0.252799    0.499586
     31          1           0       -6.158724    2.062685    2.211087
     32          1           0       -4.000691    2.962352    2.969797
     33          1           0       -1.888398    2.095889    2.061080
     34          1           0       -0.067133    1.064201    1.057420
     35          1           0        1.348383   -2.607507    0.550056
     36          1           0        2.918176   -4.301308    1.348286
     37          1           0        5.322391   -3.757464    1.593916
     38          1           0        6.105013   -1.458625    1.063996
     39          1           0        5.409545    2.846665   -0.245984
     40          1           0        3.979338    4.687108   -1.109322
     41          1           0        1.590664    4.237161   -1.587406
     42          1           0        0.648330    2.022029   -1.171857
     43          1           0        0.994577   -1.877008   -1.856208
     44          1           0       -1.414605   -2.392399   -2.230372
 ---------------------------------------------------------------------
 Rotational constants (GHZ):           0.2844989           0.0953717           0.0817892
 Leave Link  202 at Mon Jan 19 14:37:08 2026, MaxMem=  8053063680 cpu:               0.0 elap:               0.0
 (Enter /appl/Gaussian16/AVX_revB01/g16/l301.exe)
 Standard basis: 6-31G(d) (6D, 7F)
 Ernie: Thresh=  0.10000D-02 Tol=  0.10000D-05 Strict=F.
 There are   469 symmetry adapted cartesian basis functions of A   symmetry.
 There are   469 symmetry adapted basis functions of A   symmetry.
   469 basis functions,   896 primitive gaussians,   469 cartesian basis functions
   103 alpha electrons      103 beta electrons
       nuclear repulsion energy      2747.5014347803 Hartrees.
 IExCor=  402 DFT=T Ex+Corr=B3LYP ExCW=0 ScaHFX=  0.200000
 ScaDFX=  0.800000  0.720000  1.000000  0.810000 ScalE2=  1.000000  1.000000
 IRadAn=      5 IRanWt=     -1 IRanGd=            0 ICorTp=0 IEmpDi=  4
 NAtoms=   44 NActive=   44 NUniq=   44 SFac= 1.00D+00 NAtFMM=   60 NAOKFM=F Big=F
 Integral buffers will be    131072 words long.
 Raffenetti 2 integral format.
 Two-electron integral symmetry is turned on.
 Leave Link  301 at Mon Jan 19 14:37:08 2026, MaxMem=  8053063680 cpu:               0.6 elap:               0.1
 (Enter /appl/Gaussian16/AVX_revB01/g16/l302.exe)
 NPDir=0 NMtPBC=     1 NCelOv=     1 NCel=       1 NClECP=     1 NCelD=      1
         NCelK=      1 NCelE2=     1 NClLst=     1 CellRange=     0.0.
 One-electron integrals computed using PRISM.
 One-electron integral symmetry used in STVInt
 NBasis=   469 RedAO= T EigKep=  3.26D-04  NBF=   469
 NBsUse=   469 1.00D-06 EigRej= -1.00D+00 NBFU=   469
 Precomputing XC quadrature grid using
 IXCGrd= 4 IRadAn=           5 IRanWt=          -1 IRanGd=           0 AccXCQ= 0.00D+00.
 Generated NRdTot=       0 NPtTot=           0 NUsed=           0 NTot=          32
 NSgBfM=   465   465   465   465   465 MxSgAt=    44 MxSgA2=    44.
 Leave Link  302 at Mon Jan 19 14:37:09 2026, MaxMem=  8053063680 cpu:               6.5 elap:               0.4
 (Enter /appl/Gaussian16/AVX_revB01/g16/l303.exe)
 DipDrv:  MaxL=1.
 Leave Link  303 at Mon Jan 19 14:37:09 2026, MaxMem=  8053063680 cpu:               0.8 elap:               0.1
 (Enter /appl/Gaussian16/AVX_revB01/g16/l401.exe)
 ExpMin= 1.17D-01 ExpMax= 2.19D+04 ExpMxC= 3.30D+03 IAcc=3 IRadAn=         5 AccDes= 0.00D+00
 Harris functional with IExCor=  402 and IRadAn=       5 diagonalized for initial guess.
 HarFok:  IExCor=  402 AccDes= 0.00D+00 IRadAn=         5 IDoV= 1 UseB2=F ITyADJ=14
 ICtDFT=  3500011 ScaDFX=  1.000000  1.000000  1.000000  1.000000
 FoFCou: FMM=F IPFlag=           0 FMFlag=      100000 FMFlg1=           0
         NFxFlg=           0 DoJE=T BraDBF=F KetDBF=T FulRan=T
         wScrn=  0.000000 ICntrl=       500 IOpCl=  0 I1Cent=   200000004 NGrid=           0
         NMat0=    1 NMatS0=      1 NMatT0=    0 NMatD0=    1 NMtDS0=    0 NMtDT0=    0
 Petite list used in FoFCou.
 Harris En= -1602.16042220819    
 JPrj=0 DoOrth=F DoCkMO=F.
 Leave Link  401 at Mon Jan 19 14:37:11 2026, MaxMem=  8053063680 cpu:              28.4 elap:               1.8
 (Enter /appl/Gaussian16/AVX_revB01/g16/l502.exe)
 Integral symmetry usage will be decided dynamically.
 Closed shell SCF:
 Using DIIS extrapolation, IDIIS=  1040.
 NGot=  8053063680 LenX=  8052611294 LenY=  8052390864
 Requested convergence on RMS density matrix=1.00D-08 within  32 cycles.
 Requested convergence on MAX density matrix=1.00D-06.
 Requested convergence on             energy=1.00D-06.
 No special actions if energy rises.
 Fock matrices will be formed incrementally for  20 cycles.
 Integral accuracy reduced to 1.0D-05 until final iterations.

 Cycle   1  Pass 0  IDiag  1:
 FoFJK:  IHMeth= 1 ICntrl=       0 DoSepK=F KAlg= 0 I1Cent=           0 FoldK=F
 IRaf= 690000000 NMat=       1 IRICut=       1 DoRegI=T DoRafI=F ISym2E= 0 IDoP0=0 IntGTp=1.
 FoFCou: FMM=F IPFlag=           0 FMFlag=      100000 FMFlg1=           0
         NFxFlg=           0 DoJE=F BraDBF=F KetDBF=F FulRan=T
         wScrn=  0.000000 ICntrl=         0 IOpCl=  0 I1Cent=           0 NGrid=           0
         NMat0=    1 NMatS0=      1 NMatT0=    0 NMatD0=    1 NMtDS0=    0 NMtDT0=    0
 Symmetry not used in FoFCou.
 E= -1601.33436344744    
 DIIS: error= 2.84D-02 at cycle   1 NSaved=   1.
 NSaved= 1 IEnMin= 1 EnMin= -1601.33436344744     IErMin= 1 ErrMin= 2.84D-02
 ErrMax= 2.84D-02  0.00D+00 EMaxC= 1.00D-01 BMatC= 8.46D-01 BMatP= 8.46D-01
 IDIUse=3 WtCom= 7.16D-01 WtEn= 2.84D-01
 Coeff-Com:  0.100D+01
 Coeff-En:   0.100D+01
 Coeff:      0.100D+01
 Gap=     0.136 Goal=   None    Shift=    0.000
 GapD=    0.136 DampG=1.000 DampE=0.500 DampFc=0.5000 IDamp=-1.
 Damping current iteration by 5.00D-01
 RMSDP=5.47D-03 MaxDP=5.32D-01              OVMax= 3.33D-01

 Cycle   2  Pass 0  IDiag  1:
 RMSU=  2.71D-03    CP:  9.78D-01
 E= -1601.52890019094     Delta-E=       -0.194536743491 Rises=F Damp=T
 DIIS: error= 1.77D-02 at cycle   2 NSaved=   2.
 NSaved= 2 IEnMin= 2 EnMin= -1601.52890019094     IErMin= 2 ErrMin= 1.77D-02
 ErrMax= 1.77D-02  0.00D+00 EMaxC= 1.00D-01 BMatC= 1.51D-01 BMatP= 8.46D-01
 IDIUse=3 WtCom= 8.23D-01 WtEn= 1.77D-01
 Coeff-Com:  0.228D+00 0.772D+00
 Coeff-En:   0.363D+00 0.637D+00
 Coeff:      0.252D+00 0.748D+00
 Gap=     0.135 Goal=   None    Shift=    0.000
 RMSDP=1.90D-03 MaxDP=1.22D-01 DE=-1.95D-01 OVMax= 3.04D-01

 Cycle   3  Pass 0  IDiag  1:
 RMSU=  1.70D-03    CP:  9.61D-01  7.04D-01
 E= -1602.01686191253     Delta-E=       -0.487961721595 Rises=F Damp=F
 DIIS: error= 1.23D-02 at cycle   3 NSaved=   3.
 NSaved= 3 IEnMin= 3 EnMin= -1602.01686191253     IErMin= 3 ErrMin= 1.23D-02
 ErrMax= 1.23D-02  0.00D+00 EMaxC= 1.00D-01 BMatC= 9.92D-02 BMatP= 1.51D-01
 IDIUse=3 WtCom= 8.77D-01 WtEn= 1.23D-01
 Coeff-Com:  0.590D-01 0.440D+00 0.501D+00
 Coeff-En:   0.000D+00 0.000D+00 0.100D+01
 Coeff:      0.517D-01 0.386D+00 0.562D+00
 Gap=     0.112 Goal=   None    Shift=    0.000
 RMSDP=1.23D-03 MaxDP=4.47D-02 DE=-4.88D-01 OVMax= 1.30D-01

 Cycle   4  Pass 0  IDiag  1:
 RMSU=  8.25D-04    CP:  9.64D-01  8.37D-01  5.04D-01
 E= -1602.09830835194     Delta-E=       -0.081446439406 Rises=F Damp=F
 DIIS: error= 5.11D-03 at cycle   4 NSaved=   4.
 NSaved= 4 IEnMin= 4 EnMin= -1602.09830835194     IErMin= 4 ErrMin= 5.11D-03
 ErrMax= 5.11D-03  0.00D+00 EMaxC= 1.00D-01 BMatC= 2.13D-02 BMatP= 9.92D-02
 IDIUse=3 WtCom= 9.49D-01 WtEn= 5.11D-02
 Coeff-Com:  0.138D-01 0.853D-01 0.329D+00 0.572D+00
 Coeff-En:   0.000D+00 0.000D+00 0.214D+00 0.786D+00
 Coeff:      0.131D-01 0.809D-01 0.323D+00 0.583D+00
 Gap=     0.112 Goal=   None    Shift=    0.000
 RMSDP=4.82D-04 MaxDP=1.69D-02 DE=-8.14D-02 OVMax= 4.59D-02

 Cycle   5  Pass 0  IDiag  1:
 RMSU=  1.94D-04    CP:  9.65D-01  7.92D-01  6.51D-01  5.84D-01
 E= -1602.11952876664     Delta-E=       -0.021220414707 Rises=F Damp=F
 DIIS: error= 1.32D-03 at cycle   5 NSaved=   5.
 NSaved= 5 IEnMin= 5 EnMin= -1602.11952876664     IErMin= 5 ErrMin= 1.32D-03
 ErrMax= 1.32D-03  0.00D+00 EMaxC= 1.00D-01 BMatC= 1.80D-03 BMatP= 2.13D-02
 IDIUse=3 WtCom= 9.87D-01 WtEn= 1.32D-02
 Coeff-Com:  0.298D-02 0.141D-01 0.150D+00 0.350D+00 0.484D+00
 Coeff-En:   0.000D+00 0.000D+00 0.000D+00 0.162D-01 0.984D+00
 Coeff:      0.294D-02 0.139D-01 0.148D+00 0.345D+00 0.490D+00
 Gap=     0.110 Goal=   None    Shift=    0.000
 RMSDP=1.29D-04 MaxDP=8.28D-03 DE=-2.12D-02 OVMax= 1.32D-02

 Cycle   6  Pass 0  IDiag  1:
 RMSU=  6.92D-05    CP:  9.64D-01  7.97D-01  6.49D-01  6.48D-01  5.18D-01
 E= -1602.12125439751     Delta-E=       -0.001725630865 Rises=F Damp=F
 DIIS: error= 3.54D-04 at cycle   6 NSaved=   6.
 NSaved= 6 IEnMin= 6 EnMin= -1602.12125439751     IErMin= 6 ErrMin= 3.54D-04
 ErrMax= 3.54D-04  0.00D+00 EMaxC= 1.00D-01 BMatC= 1.87D-04 BMatP= 1.80D-03
 IDIUse=3 WtCom= 9.96D-01 WtEn= 3.54D-03
 Coeff-Com:  0.419D-03-0.164D-02 0.482D-01 0.132D+00 0.290D+00 0.531D+00
 Coeff-En:   0.000D+00 0.000D+00 0.000D+00 0.000D+00 0.670D-01 0.933D+00
 Coeff:      0.417D-03-0.163D-02 0.481D-01 0.132D+00 0.289D+00 0.532D+00
 Gap=     0.110 Goal=   None    Shift=    0.000
 RMSDP=3.98D-05 MaxDP=1.80D-03 DE=-1.73D-03 OVMax= 4.18D-03

 Cycle   7  Pass 0  IDiag  1:
 RMSU=  2.31D-05    CP:  9.64D-01  7.96D-01  6.51D-01  6.47D-01  6.00D-01
                    CP:  6.00D-01
 E= -1602.12142848838     Delta-E=       -0.000174090867 Rises=F Damp=F
 DIIS: error= 1.51D-04 at cycle   7 NSaved=   7.
 NSaved= 7 IEnMin= 7 EnMin= -1602.12142848838     IErMin= 7 ErrMin= 1.51D-04
 ErrMax= 1.51D-04  0.00D+00 EMaxC= 1.00D-01 BMatC= 1.64D-05 BMatP= 1.87D-04
 IDIUse=3 WtCom= 9.98D-01 WtEn= 1.51D-03
 Coeff-Com:  0.131D-03-0.207D-02 0.156D-01 0.466D-01 0.126D+00 0.309D+00
 Coeff-Com:  0.505D+00
 Coeff-En:   0.000D+00 0.000D+00 0.000D+00 0.000D+00 0.000D+00 0.235D-01
 Coeff-En:   0.976D+00
 Coeff:      0.130D-03-0.207D-02 0.156D-01 0.465D-01 0.126D+00 0.309D+00
 Coeff:      0.505D+00
 Gap=     0.111 Goal=   None    Shift=    0.000
 RMSDP=1.33D-05 MaxDP=4.71D-04 DE=-1.74D-04 OVMax= 1.56D-03

 Cycle   8  Pass 0  IDiag  1:
 RMSU=  8.33D-06    CP:  9.64D-01  7.96D-01  6.51D-01  6.48D-01  5.94D-01
                    CP:  6.52D-01  5.90D-01
 E= -1602.12144353432     Delta-E=       -0.000015045944 Rises=F Damp=F
 DIIS: error= 5.11D-05 at cycle   8 NSaved=   8.
 NSaved= 8 IEnMin= 8 EnMin= -1602.12144353432     IErMin= 8 ErrMin= 5.11D-05
 ErrMax= 5.11D-05  0.00D+00 EMaxC= 1.00D-01 BMatC= 2.64D-06 BMatP= 1.64D-05
 IDIUse=1 WtCom= 1.00D+00 WtEn= 0.00D+00
 Coeff-Com:  0.719D-04-0.129D-02 0.414D-02 0.138D-01 0.468D-01 0.135D+00
 Coeff-Com:  0.330D+00 0.471D+00
 Coeff:      0.719D-04-0.129D-02 0.414D-02 0.138D-01 0.468D-01 0.135D+00
 Coeff:      0.330D+00 0.471D+00
 Gap=     0.111 Goal=   None    Shift=    0.000
 RMSDP=5.22D-06 MaxDP=2.15D-04 DE=-1.50D-05 OVMax= 6.05D-04

 Initial convergence to 1.0D-05 achieved.  Increase integral accuracy.
 Cycle   9  Pass 1  IDiag  1:
 E= -1602.12141789149     Delta-E=        0.000025642828 Rises=F Damp=F
 DIIS: error= 9.55D-05 at cycle   1 NSaved=   1.
 NSaved= 1 IEnMin= 1 EnMin= -1602.12141789149     IErMin= 1 ErrMin= 9.55D-05
 ErrMax= 9.55D-05  0.00D+00 EMaxC= 1.00D-01 BMatC= 2.77D-06 BMatP= 2.77D-06
 IDIUse=1 WtCom= 1.00D+00 WtEn= 0.00D+00
 Coeff-Com:  0.100D+01
 Coeff:      0.100D+01
 Gap=     0.111 Goal=   None    Shift=    0.000
 RMSDP=5.22D-06 MaxDP=2.15D-04 DE= 2.56D-05 OVMax= 4.20D-04

 Cycle  10  Pass 1  IDiag  1:
 RMSU=  5.88D-05    CP:  1.00D+00
 E= -1602.12141904954     Delta-E=       -0.000001158047 Rises=F Damp=F
 DIIS: error= 4.17D-05 at cycle   2 NSaved=   2.
 NSaved= 2 IEnMin= 2 EnMin= -1602.12141904954     IErMin= 2 ErrMin= 4.17D-05
 ErrMax= 4.17D-05  0.00D+00 EMaxC= 1.00D-01 BMatC= 1.23D-06 BMatP= 2.77D-06
 IDIUse=1 WtCom= 1.00D+00 WtEn= 0.00D+00
 Coeff-Com:  0.348D+00 0.652D+00
 Coeff:      0.348D+00 0.652D+00
 Gap=     0.110 Goal=   None    Shift=    0.000
 RMSDP=6.11D-06 MaxDP=2.13D-04 DE=-1.16D-06 OVMax= 6.15D-04

 Cycle  11  Pass 1  IDiag  1:
 RMSU=  6.11D-06    CP:  1.00D+00  1.00D+00
 E= -1602.12141839263     Delta-E=        0.000000656910 Rises=F Damp=F
 DIIS: error= 5.07D-05 at cycle   3 NSaved=   3.
 NSaved= 3 IEnMin= 2 EnMin= -1602.12141904954     IErMin= 2 ErrMin= 4.17D-05
 ErrMax= 5.07D-05  0.00D+00 EMaxC= 1.00D-01 BMatC= 1.85D-06 BMatP= 1.23D-06
 IDIUse=1 WtCom= 1.00D+00 WtEn= 0.00D+00
 Coeff-Com:  0.581D-02 0.549D+00 0.446D+00
 Coeff:      0.581D-02 0.549D+00 0.446D+00
 Gap=     0.111 Goal=   None    Shift=    0.000
 RMSDP=3.53D-06 MaxDP=1.21D-04 DE= 6.57D-07 OVMax= 3.48D-04

 Cycle  12  Pass 1  IDiag  1:
 RMSU=  7.47D-07    CP:  1.00D+00  1.01D+00  4.41D-01
 E= -1602.12142035903     Delta-E=       -0.000001966398 Rises=F Damp=F
 DIIS: error= 3.97D-06 at cycle   4 NSaved=   4.
 NSaved= 4 IEnMin= 4 EnMin= -1602.12142035903     IErMin= 4 ErrMin= 3.97D-06
 ErrMax= 3.97D-06  0.00D+00 EMaxC= 1.00D-01 BMatC= 2.57D-08 BMatP= 1.23D-06
 IDIUse=1 WtCom= 1.00D+00 WtEn= 0.00D+00
 Coeff-Com: -0.284D-02 0.324D+00 0.273D+00 0.406D+00
 Coeff:     -0.284D-02 0.324D+00 0.273D+00 0.406D+00
 Gap=     0.111 Goal=   None    Shift=    0.000
 RMSDP=4.60D-07 MaxDP=1.65D-05 DE=-1.97D-06 OVMax= 4.44D-05

 Cycle  13  Pass 1  IDiag  1:
 RMSU=  1.75D-07    CP:  1.00D+00  1.01D+00  4.51D-01  4.37D-01
 E= -1602.12142038448     Delta-E=       -0.000000025459 Rises=F Damp=F
 DIIS: error= 9.66D-07 at cycle   5 NSaved=   5.
 NSaved= 5 IEnMin= 5 EnMin= -1602.12142038448     IErMin= 5 ErrMin= 9.66D-07
 ErrMax= 9.66D-07  0.00D+00 EMaxC= 1.00D-01 BMatC= 1.16D-09 BMatP= 2.57D-08
 IDIUse=1 WtCom= 1.00D+00 WtEn= 0.00D+00
 Coeff-Com: -0.205D-02 0.181D+00 0.153D+00 0.253D+00 0.415D+00
 Coeff:     -0.205D-02 0.181D+00 0.153D+00 0.253D+00 0.415D+00
 Gap=     0.111 Goal=   None    Shift=    0.000
 RMSDP=1.03D-07 MaxDP=5.58D-06 DE=-2.55D-08 OVMax= 1.18D-05

 Cycle  14  Pass 1  IDiag  1:
 RMSU=  6.97D-08    CP:  1.00D+00  1.01D+00  4.52D-01  4.58D-01  5.79D-01
 E= -1602.12142038567     Delta-E=       -0.000000001189 Rises=F Damp=F
 DIIS: error= 2.86D-07 at cycle   6 NSaved=   6.
 NSaved= 6 IEnMin= 6 EnMin= -1602.12142038567     IErMin= 6 ErrMin= 2.86D-07
 ErrMax= 2.86D-07  0.00D+00 EMaxC= 1.00D-01 BMatC= 6.51D-11 BMatP= 1.16D-09
 IDIUse=1 WtCom= 1.00D+00 WtEn= 0.00D+00
 Coeff-Com: -0.908D-03 0.737D-01 0.629D-01 0.105D+00 0.243D+00 0.516D+00
 Coeff:     -0.908D-03 0.737D-01 0.629D-01 0.105D+00 0.243D+00 0.516D+00
 Gap=     0.111 Goal=   None    Shift=    0.000
 RMSDP=2.68D-08 MaxDP=9.58D-07 DE=-1.19D-09 OVMax= 2.52D-06

 Cycle  15  Pass 1  IDiag  1:
 RMSU=  1.91D-08    CP:  1.00D+00  1.01D+00  4.53D-01  4.56D-01  6.37D-01
                    CP:  7.73D-01
 E= -1602.12142038577     Delta-E=       -0.000000000095 Rises=F Damp=F
 DIIS: error= 1.29D-07 at cycle   7 NSaved=   7.
 NSaved= 7 IEnMin= 7 EnMin= -1602.12142038577     IErMin= 7 ErrMin= 1.29D-07
 ErrMax= 1.29D-07  0.00D+00 EMaxC= 1.00D-01 BMatC= 8.39D-12 BMatP= 6.51D-11
 IDIUse=1 WtCom= 1.00D+00 WtEn= 0.00D+00
 Coeff-Com: -0.231D-03 0.165D-01 0.143D-01 0.236D-01 0.864D-01 0.298D+00
 Coeff-Com:  0.561D+00
 Coeff:     -0.231D-03 0.165D-01 0.143D-01 0.236D-01 0.864D-01 0.298D+00
 Coeff:      0.561D+00
 Gap=     0.111 Goal=   None    Shift=    0.000
 RMSDP=9.30D-09 MaxDP=7.72D-07 DE=-9.55D-11 OVMax= 1.39D-06

 SCF Done:  E(RB3LYP) =  -1602.12142039     A.U. after   15 cycles
            NFock= 15  Conv=0.93D-08     -V/T= 2.0074
 KE= 1.590431414410D+03 PE=-9.236447185058D+03 EE= 3.296392915482D+03
 Leave Link  502 at Mon Jan 19 14:37:49 2026, MaxMem=  8053063680 cpu:             613.1 elap:              38.4
 (Enter /appl/Gaussian16/AVX_revB01/g16/l508.exe)
 QCSCF skips out because SCF is already converged.
 Leave Link  508 at Mon Jan 19 14:37:50 2026, MaxMem=  8053063680 cpu:               0.2 elap:               0.0
 (Enter /appl/Gaussian16/AVX_revB01/g16/l601.exe)
 Copying SCF densities to generalized density rwf, IOpCl= 0 IROHF=0.

 **********************************************************************

            Population analysis using the SCF Density.

 **********************************************************************

 Orbital symmetries:
       Occupied  (A) (A) (A) (A) (A) (A) (A) (A) (A) (A) (A) (A)
                 (A) (A) (A) (A) (A) (A) (A) (A) (A) (A) (A) (A)
                 (A) (A) (A) (A) (A) (A) (A) (A) (A) (A) (A) (A)
                 (A) (A) (A) (A) (A) (A) (A) (A) (A) (A) (A) (A)
                 (A) (A) (A) (A) (A) (A) (A) (A) (A) (A) (A) (A)
                 (A) (A) (A) (A) (A) (A) (A) (A) (A) (A) (A) (A)
                 (A) (A) (A) (A) (A) (A) (A) (A) (A) (A) (A) (A)
                 (A) (A) (A) (A) (A) (A) (A) (A) (A) (A) (A) (A)
                 (A) (A) (A) (A) (A) (A) (A)
       Virtual   (A) (A) (A) (A) (A) (A) (A) (A) (A) (A) (A) (A)
                 (A) (A) (A) (A) (A) (A) (A) (A) (A) (A) (A) (A)
                 (A) (A) (A) (A) (A) (A) (A) (A) (A) (A) (A) (A)
                 (A) (A) (A) (A) (A) (A) (A) (A) (A) (A) (A) (A)
                 (A) (A) (A) (A) (A) (A) (A) (A) (A) (A) (A) (A)
                 (A) (A) (A) (A) (A) (A) (A) (A) (A) (A) (A) (A)
                 (A) (A) (A) (A) (A) (A) (A) (A) (A) (A) (A) (A)
                 (A) (A) (A) (A) (A) (A) (A) (A) (A) (A) (A) (A)
                 (A) (A) (A) (A) (A) (A) (A) (A) (A) (A) (A) (A)
                 (A) (A) (A) (A) (A) (A) (A) (A) (A) (A) (A) (A)
                 (A) (A) (A) (A) (A) (A) (A) (A) (A) (A) (A) (A)
                 (A) (A) (A) (A) (A) (A) (A) (A) (A) (A) (A) (A)
                 (A) (A) (A) (A) (A) (A) (A) (A) (A) (A) (A) (A)
                 (A) (A) (A) (A) (A) (A) (A) (A) (A) (A) (A) (A)
                 (A) (A) (A) (A) (A) (A) (A) (A) (A) (A) (A) (A)
                 (A) (A) (A) (A) (A) (A) (A) (A) (A) (A) (A) (A)
                 (A) (A) (A) (A) (A) (A) (A) (A) (A) (A) (A) (A)
                 (A) (A) (A) (A) (A) (A) (A) (A) (A) (A) (A) (A)
                 (A) (A) (A) (A) (A) (A) (A) (A) (A) (A) (A) (A)
                 (A) (A) (A) (A) (A) (A) (A) (A) (A) (A) (A) (A)
                 (A) (A) (A) (A) (A) (A) (A) (A) (A) (A) (A) (A)
                 (A) (A) (A) (A) (A) (A) (A) (A) (A) (A) (A) (A)
                 (A) (A) (A) (A) (A) (A) (A) (A) (A) (A) (A) (A)
                 (A) (A) (A) (A) (A) (A) (A) (A) (A) (A) (A) (A)
                 (A) (A) (A) (A) (A) (A) (A) (A) (A) (A) (A) (A)
                 (A) (A) (A) (A) (A) (A) (A) (A) (A) (A) (A) (A)
                 (A) (A) (A) (A) (A) (A) (A) (A) (A) (A) (A) (A)
                 (A) (A) (A) (A) (A) (A) (A) (A) (A) (A) (A) (A)
                 (A) (A) (A) (A) (A) (A) (A) (A) (A) (A) (A) (A)
                 (A) (A) (A) (A) (A) (A) (A) (A) (A) (A) (A) (A)
                 (A) (A) (A) (A) (A) (A)
 The electronic state is 1-A.
 Alpha  occ. eigenvalues --  -89.09655 -19.20077 -19.14047 -19.14046 -14.38758
 Alpha  occ. eigenvalues --  -10.25660 -10.25613 -10.25568 -10.24389 -10.24327
 Alpha  occ. eigenvalues --  -10.23343 -10.23109 -10.23067 -10.23008 -10.22569
 Alpha  occ. eigenvalues --  -10.22178 -10.22012 -10.21823 -10.21819 -10.21663
 Alpha  occ. eigenvalues --  -10.21573 -10.19337 -10.19265 -10.19180 -10.19129
 Alpha  occ. eigenvalues --  -10.19008 -10.18928 -10.18868 -10.18803  -8.12621
 Alpha  occ. eigenvalues --   -6.09031  -6.08975  -6.08971  -1.11920  -1.09951
 Alpha  occ. eigenvalues --   -1.00748  -0.99501  -0.91729  -0.88283  -0.87715
 Alpha  occ. eigenvalues --   -0.84927  -0.82401  -0.79827  -0.78246  -0.77705
 Alpha  occ. eigenvalues --   -0.76880  -0.75602  -0.74197  -0.72855  -0.69490
 Alpha  occ. eigenvalues --   -0.66803  -0.65559  -0.65301  -0.61983  -0.60963
 Alpha  occ. eigenvalues --   -0.60841  -0.60629  -0.58191  -0.57283  -0.55368
 Alpha  occ. eigenvalues --   -0.54174  -0.52252  -0.51055  -0.50422  -0.49134
 Alpha  occ. eigenvalues --   -0.48977  -0.47762  -0.47705  -0.47474  -0.46567
 Alpha  occ. eigenvalues --   -0.46202  -0.45943  -0.45769  -0.45395  -0.44399
 Alpha  occ. eigenvalues --   -0.44188  -0.44054  -0.43060  -0.41701  -0.40452
 Alpha  occ. eigenvalues --   -0.39610  -0.39517  -0.38716  -0.38590  -0.38236
 Alpha  occ. eigenvalues --   -0.38078  -0.37161  -0.36543  -0.36347  -0.34267
 Alpha  occ. eigenvalues --   -0.33330  -0.33173  -0.32748  -0.31805  -0.31056
 Alpha  occ. eigenvalues --   -0.29497  -0.27797  -0.27578  -0.26526  -0.26366
 Alpha  occ. eigenvalues --   -0.25007  -0.23415  -0.18120
 Alpha virt. eigenvalues --   -0.07067  -0.05211  -0.02587  -0.01600  -0.00390
 Alpha virt. eigenvalues --    0.00059   0.01410   0.03569   0.06369   0.06787
 Alpha virt. eigenvalues --    0.07097   0.08157   0.09232   0.09739   0.09991
 Alpha virt. eigenvalues --    0.11868   0.13052   0.13908   0.14163   0.14588
 Alpha virt. eigenvalues --    0.14928   0.15682   0.16577   0.16790   0.17001
 Alpha virt. eigenvalues --    0.17371   0.17897   0.18151   0.18703   0.19158
 Alpha virt. eigenvalues --    0.19340   0.19683   0.22343   0.23460   0.23824
 Alpha virt. eigenvalues --    0.24805   0.25080   0.25804   0.26126   0.27926
 Alpha virt. eigenvalues --    0.28667   0.28859   0.31107   0.31383   0.31672
 Alpha virt. eigenvalues --    0.32378   0.32566   0.33331   0.34593   0.36056
 Alpha virt. eigenvalues --    0.37307   0.37553   0.38252   0.39687   0.40946
 Alpha virt. eigenvalues --    0.41395   0.42441   0.43440   0.46317   0.47978
 Alpha virt. eigenvalues --    0.48977   0.50044   0.50803   0.50999   0.51551
 Alpha virt. eigenvalues --    0.51686   0.52016   0.52816   0.53895   0.54201
 Alpha virt. eigenvalues --    0.54303   0.54849   0.54966   0.55456   0.55664
 Alpha virt. eigenvalues --    0.56316   0.56483   0.56688   0.57054   0.57729
 Alpha virt. eigenvalues --    0.58559   0.58615   0.59143   0.59369   0.59584
 Alpha virt. eigenvalues --    0.59697   0.60087   0.60773   0.60826   0.60895
 Alpha virt. eigenvalues --    0.60984   0.61211   0.61537   0.61774   0.62192
 Alpha virt. eigenvalues --    0.62475   0.63278   0.63885   0.64413   0.65015
 Alpha virt. eigenvalues --    0.67132   0.67932   0.68438   0.69338   0.70990
 Alpha virt. eigenvalues --    0.73595   0.74360   0.75130   0.76174   0.77062
 Alpha virt. eigenvalues --    0.77999   0.79056   0.79705   0.80244   0.80570
 Alpha virt. eigenvalues --    0.81385   0.82285   0.82593   0.83168   0.83593
 Alpha virt. eigenvalues --    0.83783   0.83891   0.84621   0.85537   0.85841
 Alpha virt. eigenvalues --    0.86054   0.87140   0.87918   0.87944   0.88732
 Alpha virt. eigenvalues --    0.89027   0.89232   0.90121   0.90750   0.91004
 Alpha virt. eigenvalues --    0.91552   0.92672   0.93141   0.93161   0.94457
 Alpha virt. eigenvalues --    0.95208   0.96077   0.97122   0.98379   0.99870
 Alpha virt. eigenvalues --    1.00307   1.01432   1.01616   1.01994   1.02952
 Alpha virt. eigenvalues --    1.03976   1.04619   1.04925   1.05497   1.07568
 Alpha virt. eigenvalues --    1.08277   1.10165   1.10968   1.11792   1.12349
 Alpha virt. eigenvalues --    1.13070   1.14159   1.14852   1.17534   1.18101
 Alpha virt. eigenvalues --    1.18617   1.19491   1.21362   1.21751   1.22636
 Alpha virt. eigenvalues --    1.23632   1.24481   1.24915   1.26583   1.26734
 Alpha virt. eigenvalues --    1.27166   1.27627   1.28793   1.30084   1.31120
 Alpha virt. eigenvalues --    1.32652   1.35852   1.36454   1.37951   1.38722
 Alpha virt. eigenvalues --    1.39188   1.40265   1.41312   1.41582   1.42373
 Alpha virt. eigenvalues --    1.43589   1.44218   1.45371   1.45563   1.45879
 Alpha virt. eigenvalues --    1.45887   1.46783   1.47356   1.48090   1.48785
 Alpha virt. eigenvalues --    1.49461   1.49809   1.50028   1.50162   1.50612
 Alpha virt. eigenvalues --    1.51225   1.52844   1.55758   1.58690   1.63322
 Alpha virt. eigenvalues --    1.65945   1.68255   1.70685   1.71605   1.71721
 Alpha virt. eigenvalues --    1.75261   1.76094   1.76588   1.78877   1.79761
 Alpha virt. eigenvalues --    1.80562   1.80976   1.81874   1.81961   1.82130
 Alpha virt. eigenvalues --    1.82549   1.82987   1.84141   1.84754   1.85323
 Alpha virt. eigenvalues --    1.85419   1.85876   1.88060   1.89284   1.89394
 Alpha virt. eigenvalues --    1.90830   1.91388   1.92019   1.92550   1.93514
 Alpha virt. eigenvalues --    1.93807   1.94620   1.95108   1.96057   1.97230
 Alpha virt. eigenvalues --    1.97645   1.99061   1.99431   2.01266   2.05129
 Alpha virt. eigenvalues --    2.05754   2.06089   2.07173   2.08365   2.09362
 Alpha virt. eigenvalues --    2.10055   2.10604   2.10644   2.12924   2.13000
 Alpha virt. eigenvalues --    2.13926   2.14453   2.15310   2.16524   2.17520
 Alpha virt. eigenvalues --    2.18292   2.19472   2.20085   2.20689   2.22276
 Alpha virt. eigenvalues --    2.23227   2.23947   2.24760   2.25487   2.26434
 Alpha virt. eigenvalues --    2.28161   2.28410   2.29109   2.29910   2.30309
 Alpha virt. eigenvalues --    2.30841   2.31732   2.33067   2.34062   2.35118
 Alpha virt. eigenvalues --    2.37346   2.39160   2.45311   2.46390   2.47594
 Alpha virt. eigenvalues --    2.49543   2.52263   2.53453   2.54076   2.54643
 Alpha virt. eigenvalues --    2.58364   2.58652   2.60133   2.61661   2.62666
 Alpha virt. eigenvalues --    2.63145   2.64773   2.65880   2.66825   2.67671
 Alpha virt. eigenvalues --    2.67788   2.68889   2.71115   2.72318   2.73170
 Alpha virt. eigenvalues --    2.73635   2.74435   2.74597   2.75808   2.76232
[...]
    22  C   -0.000506  -0.057959   0.532249   5.021035   0.511186  -0.025807
    23  C   -0.000009   0.003410  -0.011320   0.511186   4.866816   0.550568
    24  C    0.000003  -0.000043  -0.044174  -0.025807   0.550568   4.861787
    25  C    0.001123   0.004575  -0.031452  -0.049289  -0.031498   0.512487
    26  C   -0.011982  -0.043649   0.449030  -0.044754  -0.037640  -0.008017
    27  C   -0.000145  -0.000000  -0.000145  -0.000006  -0.000000   0.000051
    28  C    0.000003  -0.000000   0.000003  -0.000000   0.000000  -0.000001
    29  C   -0.000000  -0.000000  -0.000000   0.000000   0.000000  -0.000001
    30  H    0.000000  -0.000000   0.000000  -0.000000   0.000000  -0.000000
    31  H    0.000000   0.000000   0.000000   0.000000   0.000000  -0.000000
    32  H   -0.000000   0.000000  -0.000000  -0.000000   0.000000  -0.000000
    33  H   -0.000000   0.000000  -0.000000   0.000000   0.000000   0.000000
    34  H   -0.000075   0.000000  -0.000074  -0.000001   0.000001  -0.000005
    35  H    0.004892  -0.000046  -0.000008   0.000000   0.000000  -0.000000
    36  H    0.000925   0.000001   0.000000   0.000000  -0.000000   0.000000
    37  H    0.003860  -0.000051  -0.000000  -0.000000   0.000000  -0.000000
    38  H   -0.035036  -0.000857   0.000210   0.000004   0.000000   0.000000
    39  H    0.000210  -0.000857  -0.035036   0.345685  -0.041085   0.004790
    40  H   -0.000000  -0.000051   0.003860  -0.040310   0.361296  -0.041337
    41  H    0.000000   0.000001   0.000925   0.004379  -0.040677   0.359781
    42  H   -0.000008  -0.000046   0.004892   0.000470   0.004472  -0.039089
    43  H   -0.000078  -0.000000  -0.000078  -0.000001   0.000001  -0.000009
    44  H   -0.000000  -0.000000  -0.000000   0.000000  -0.000000  -0.000000
              25         26         27         28         29         30
     1  O    0.000000  -0.000000   0.000027  -0.000211  -0.056872   0.000398
     2  S    0.000000   0.000000   0.003238  -0.041190   0.075859  -0.000692
     3  O   -0.000000   0.000000   0.000027  -0.000212  -0.056872   0.000398
     4  C    0.000000   0.000000  -0.000198   0.005659  -0.060323  -0.037593
     5  C   -0.000000  -0.000000   0.000001  -0.000051   0.005484   0.362061
     6  C   -0.000000  -0.000000  -0.000000   0.000001  -0.000175  -0.036948
     7  C   -0.000000  -0.000000   0.000000   0.000002  -0.000192   0.003797
     8  C   -0.000000  -0.000000   0.000005  -0.000165   0.013125   0.000822
     9  C    0.000003   0.000001   0.000616   0.008605  -0.020646   0.002633
    10  C   -0.000279  -0.000096  -0.035948  -0.003956   0.443182  -0.000244
    11  C    0.000683  -0.001358  -0.070489  -0.051698  -0.106374   0.000001
    12  C    0.001187  -0.036574   0.537454  -0.001954  -0.036670  -0.000000
    13  N   -0.078852   0.234452  -0.063955   0.005998   0.000620   0.000000
    14  C    0.003278  -0.025733  -0.001545  -0.000044   0.000021  -0.000000
    15  C   -0.000300   0.003278   0.000363  -0.000282  -0.000020  -0.000000
    16  C    0.000002  -0.000070   0.000051  -0.000001  -0.000001  -0.000000
    17  C   -0.000000  -0.000049  -0.000000   0.000000   0.000000   0.000000
    18  C    0.000019   0.002057  -0.000006  -0.000000   0.000000  -0.000000
    19  C    0.001123  -0.011982  -0.000145   0.000003  -0.000000   0.000000
    20  O    0.004575  -0.043649  -0.000000  -0.000000  -0.000000  -0.000000
    21  C   -0.031452   0.449030  -0.000145   0.000003  -0.000000   0.000000
    22  C   -0.049289  -0.044754  -0.000006  -0.000000   0.000000  -0.000000
    23  C   -0.031498  -0.037640  -0.000000   0.000000   0.000000   0.000000
    24  C    0.512487  -0.008017   0.000051  -0.000001  -0.000001  -0.000000
    25  C    5.054510   0.503556   0.000361  -0.000282  -0.000020  -0.000000
    26  C    0.503556   4.700086  -0.001548  -0.000044   0.000021  -0.000000
    27  C    0.000361  -0.001548   4.972988   0.473268  -0.039122  -0.000000
    28  C   -0.000282  -0.000044   0.473268   4.995549   0.477595   0.000001
    29  C   -0.000020   0.000021  -0.039122   0.477595   5.595484   0.000184
    30  H   -0.000000  -0.000000  -0.000000   0.000001   0.000184   0.533585
    31  H   -0.000000   0.000000   0.000000  -0.000000  -0.000000  -0.004612
    32  H   -0.000000   0.000000  -0.000000  -0.000000   0.000004  -0.000150
    33  H   -0.000000  -0.000000   0.000003   0.000001  -0.000195   0.000016
    34  H    0.000165   0.000969   0.005480  -0.000075   0.007129   0.000000
    35  H   -0.000002  -0.000136   0.001389   0.000114   0.000057  -0.000000
    36  H   -0.000000   0.000001  -0.000001  -0.000000  -0.000000   0.000000
    37  H    0.000000   0.000001   0.000000   0.000000  -0.000000   0.000000
    38  H   -0.000001  -0.000012  -0.000000   0.000000   0.000000   0.000000
    39  H    0.000343   0.006264  -0.000000   0.000000   0.000000   0.000000
    40  H    0.004913   0.000587   0.000000   0.000000  -0.000000   0.000000
    41  H   -0.039216   0.003516  -0.000001  -0.000000  -0.000000   0.000000
    42  H    0.347041  -0.036033   0.001390   0.000114   0.000057  -0.000000
    43  H    0.000203   0.001072   0.359731  -0.041950   0.004743  -0.000000
    44  H    0.000002  -0.000000  -0.031105   0.359126  -0.036724   0.000000
              31         32         33         34         35         36
     1  O    0.000001  -0.000000   0.000000   0.000000   0.000000  -0.000000
     2  S    0.000010   0.000002  -0.000067  -0.000037   0.000002  -0.000000
     3  O    0.000001  -0.000000   0.000000   0.000000   0.000000   0.000000
     4  C    0.004827   0.000795   0.007547  -0.000151  -0.000000   0.000000
     5  C   -0.041655   0.004579   0.000279   0.000001  -0.000000  -0.000000
     6  C    0.364207  -0.039302   0.004145   0.000001   0.000000  -0.000000
     7  C   -0.039917   0.360424  -0.045807   0.000036  -0.000000  -0.000000
     8  C    0.004471  -0.037253   0.350697   0.004318  -0.000001   0.000000
     9  C    0.000652   0.002665  -0.033998  -0.010960  -0.000009   0.000000
    10  C    0.000001  -0.000169  -0.012635  -0.035139  -0.000037  -0.000000
    11  C   -0.000000  -0.000002   0.004963   0.347095   0.001082  -0.000001
    12  C    0.000000  -0.000000   0.000084  -0.041158   0.012507  -0.000000
    13  N   -0.000000   0.000000  -0.000001  -0.003055  -0.013291  -0.000092
    14  C    0.000000   0.000000  -0.000000   0.000970  -0.036033   0.003516
    15  C   -0.000000  -0.000000  -0.000000   0.000165   0.347041  -0.039216
    16  C   -0.000000  -0.000000   0.000000  -0.000005  -0.039089   0.359781
    17  C    0.000000   0.000000   0.000000   0.000001   0.004472  -0.040677
    18  C    0.000000  -0.000000   0.000000  -0.000001   0.000470   0.004379
    19  C    0.000000  -0.000000  -0.000000  -0.000075   0.004892   0.000925
    20  O    0.000000   0.000000   0.000000   0.000000  -0.000046   0.000001
    21  C    0.000000  -0.000000  -0.000000  -0.000074  -0.000008   0.000000
    22  C    0.000000  -0.000000   0.000000  -0.000001   0.000000   0.000000
    23  C    0.000000   0.000000   0.000000   0.000001   0.000000  -0.000000
    24  C   -0.000000  -0.000000   0.000000  -0.000005  -0.000000   0.000000
    25  C   -0.000000  -0.000000  -0.000000   0.000165  -0.000002  -0.000000
    26  C    0.000000   0.000000  -0.000000   0.000969  -0.000136   0.000001
    27  C    0.000000  -0.000000   0.000003   0.005480   0.001389  -0.000001
    28  C   -0.000000  -0.000000   0.000001  -0.000075   0.000114  -0.000000
    29  C   -0.000000   0.000004  -0.000195   0.007129   0.000057  -0.000000
    30  H   -0.004612  -0.000150   0.000016   0.000000  -0.000000   0.000000
    31  H    0.565968  -0.005041  -0.000157  -0.000000   0.000000   0.000000
    32  H   -0.005041   0.568274  -0.004683   0.000001   0.000000   0.000000
    33  H   -0.000157  -0.004683   0.577990   0.002738  -0.000000   0.000000
    34  H   -0.000000   0.000001   0.002738   0.563044   0.000039  -0.000000
    35  H    0.000000   0.000000  -0.000000   0.000039   0.578256  -0.005456
    36  H    0.000000   0.000000   0.000000  -0.000000  -0.005456   0.590423
    37  H   -0.000000  -0.000000   0.000000  -0.000000  -0.000181  -0.005230
    38  H   -0.000000   0.000000   0.000000  -0.000000   0.000014  -0.000169
    39  H   -0.000000   0.000000   0.000000  -0.000000   0.000000   0.000000
    40  H   -0.000000  -0.000000   0.000000  -0.000000  -0.000000   0.000000
    41  H    0.000000   0.000000   0.000000  -0.000000  -0.000000  -0.000000
    42  H    0.000000   0.000000  -0.000000   0.000039   0.000002  -0.000000
    43  H   -0.000000  -0.000000  -0.000000  -0.000147   0.000025  -0.000000
    44  H   -0.000000   0.000000   0.000000   0.000017  -0.000002  -0.000000
              37         38         39         40         41         42
     1  O   -0.000000  -0.000000   0.000000   0.000000   0.000000   0.000000
     2  S   -0.000000   0.000000   0.000000  -0.000000  -0.000000   0.000002
     3  O    0.000000   0.000000  -0.000000  -0.000000  -0.000000   0.000000
     4  C   -0.000000   0.000000   0.000000  -0.000000   0.000000  -0.000000
     5  C    0.000000  -0.000000  -0.000000   0.000000  -0.000000  -0.000000
     6  C    0.000000  -0.000000  -0.000000   0.000000  -0.000000   0.000000
     7  C    0.000000  -0.000000  -0.000000   0.000000  -0.000000  -0.000000
     8  C    0.000000   0.000000   0.000000   0.000000   0.000000  -0.000001
     9  C   -0.000000  -0.000000  -0.000000  -0.000000   0.000000  -0.000009
    10  C    0.000000   0.000000   0.000000   0.000000  -0.000000  -0.000037
    11  C    0.000000  -0.000000  -0.000000   0.000000  -0.000001   0.001081
    12  C   -0.000000   0.000003   0.000003  -0.000000  -0.000000   0.012507
    13  N    0.000003  -0.000090  -0.000090   0.000003  -0.000092  -0.013291
    14  C    0.000587   0.006264  -0.000012   0.000001   0.000001  -0.000136
    15  C    0.004913   0.000343  -0.000001   0.000000  -0.000000  -0.000002
    16  C   -0.041337   0.004790   0.000000  -0.000000   0.000000  -0.000000
    17  C    0.361296  -0.041085   0.000000   0.000000  -0.000000   0.000000
    18  C   -0.040310   0.345685   0.000004  -0.000000   0.000000   0.000000
    19  C    0.003860  -0.035036   0.000210  -0.000000   0.000000  -0.000008
    20  O   -0.000051  -0.000857  -0.000857  -0.000051   0.000001  -0.000046
    21  C   -0.000000   0.000210  -0.035036   0.003860   0.000925   0.004892
    22  C   -0.000000   0.000004   0.345685  -0.040310   0.004379   0.000470
    23  C    0.000000   0.000000  -0.041085   0.361296  -0.040677   0.004472
    24  C   -0.000000   0.000000   0.004790  -0.041337   0.359781  -0.039089
    25  C    0.000000  -0.000001   0.000343   0.004913  -0.039216   0.347041
    26  C    0.000001  -0.000012   0.006264   0.000587   0.003516  -0.036033
    27  C    0.000000  -0.000000  -0.000000   0.000000  -0.000001   0.001390
    28  C    0.000000   0.000000   0.000000   0.000000  -0.000000   0.000114
    29  C   -0.000000   0.000000   0.000000  -0.000000  -0.000000   0.000057
    30  H    0.000000   0.000000   0.000000   0.000000   0.000000  -0.000000
    31  H   -0.000000  -0.000000  -0.000000  -0.000000   0.000000   0.000000
    32  H   -0.000000   0.000000   0.000000  -0.000000   0.000000   0.000000
    33  H    0.000000   0.000000   0.000000   0.000000   0.000000  -0.000000
    34  H   -0.000000  -0.000000  -0.000000  -0.000000  -0.000000   0.000039
    35  H   -0.000181   0.000014   0.000000  -0.000000  -0.000000   0.000002
    36  H   -0.005230  -0.000169   0.000000   0.000000  -0.000000  -0.000000
    37  H    0.591070  -0.005705  -0.000000  -0.000000   0.000000  -0.000000
    38  H   -0.005705   0.581173   0.000026  -0.000000   0.000000   0.000000
    39  H   -0.000000   0.000026   0.581173  -0.005705  -0.000169   0.000014
    40  H   -0.000000  -0.000000  -0.005705   0.591070  -0.005230  -0.000181
    41  H    0.000000   0.000000  -0.000169  -0.005230   0.590423  -0.005456
    42  H   -0.000000   0.000000   0.000014  -0.000181  -0.005456   0.578255
    43  H    0.000000  -0.000000  -0.000000   0.000000  -0.000000   0.000025
    44  H    0.000000  -0.000000  -0.000000   0.000000  -0.000000  -0.000002
              43         44
     1  O    0.000001   0.000412
     2  S    0.000020  -0.000435
     3  O    0.000001   0.000411
     4  C   -0.000000   0.000186
     5  C   -0.000000   0.000001
     6  C    0.000000  -0.000000
     7  C    0.000000  -0.000000
     8  C   -0.000000   0.000001
     9  C    0.000003  -0.000241
    10  C    0.000317   0.002441
    11  C    0.005692   0.000909
    12  C   -0.035166   0.002666
    13  N   -0.005007  -0.000111
    14  C    0.001071  -0.000000
    15  C    0.000203   0.000002
    16  C   -0.000009  -0.000000
    17  C    0.000001  -0.000000
    18  C   -0.000001   0.000000
    19  C   -0.000078  -0.000000
    20  O   -0.000000  -0.000000
    21  C   -0.000078  -0.000000
    22  C   -0.000001   0.000000
    23  C    0.000001  -0.000000
    24  C   -0.000009  -0.000000
    25  C    0.000203   0.000002
    26  C    0.001072  -0.000000
    27  C    0.359731  -0.031105
    28  C   -0.041950   0.359126
    29  C    0.004743  -0.036724
    30  H   -0.000000   0.000000
    31  H   -0.000000  -0.000000
    32  H   -0.000000   0.000000
    33  H   -0.000000   0.000000
    34  H   -0.000147   0.000017
    35  H    0.000025  -0.000002
    36  H   -0.000000  -0.000000
    37  H    0.000000   0.000000
    38  H   -0.000000  -0.000000
    39  H   -0.000000  -0.000000
    40  H    0.000000   0.000000
    41  H   -0.000000  -0.000000
    42  H    0.000025  -0.000002
    43  H    0.549256  -0.004346
    44  H   -0.004346   0.525617
 Mulliken charges:
               1
     1  O   -0.500536
     2  S    1.141068
     3  O   -0.500538
     4  C   -0.216321
     5  C   -0.169310
     6  C   -0.114287
     7  C   -0.133150
     8  C   -0.165702
     9  C    0.124697
    10  C    0.118158
    11  C   -0.172242
    12  C    0.195804
    13  N   -0.725262
    14  C    0.342807
    15  C   -0.203259
    16  C   -0.136594
    17  C   -0.135558
    18  C   -0.203695
    19  C    0.322199
    20  O   -0.582027
    21  C    0.322199
    22  C   -0.203695
    23  C   -0.135557
    24  C   -0.136594
    25  C   -0.203258
    26  C    0.342807
    27  C   -0.112229
    28  C   -0.183921
    29  C   -0.209358
    30  H    0.176343
    31  H    0.151243
    32  H    0.149856
    33  H    0.149080
    34  H    0.158673
    35  H    0.143929
    36  H    0.131817
    37  H    0.131085
    38  H    0.144445
    39  H    0.144445
    40  H    0.131085
    41  H    0.131817
    42  H    0.143930
    43  H    0.164430
    44  H    0.181176
 Sum of Mulliken charges =  -0.00000
 Mulliken charges with hydrogens summed into heavy atoms:
               1
     1  O   -0.500536
     2  S    1.141068
     3  O   -0.500538
     4  C   -0.216321
     5  C    0.007032
     6  C    0.036956
     7  C    0.016706
     8  C   -0.016621
     9  C    0.124697
    10  C    0.118158
    11  C   -0.013569
    12  C    0.195804
    13  N   -0.725262
    14  C    0.342807
    15  C   -0.059330
    16  C   -0.004777
    17  C   -0.004473
    18  C   -0.059249
    19  C    0.322199
    20  O   -0.582027
    21  C    0.322199
    22  C   -0.059250
    23  C   -0.004473
    24  C   -0.004778
    25  C   -0.059328
    26  C    0.342807
    27  C    0.052201
    28  C   -0.002745
    29  C   -0.209358
 Electronic spatial extent (au):  <R**2>=          13126.9804
 Charge=              0.0000 electrons
 Dipole moment (field-independent basis, Debye):
    X=              1.1401    Y=             -0.0013    Z=              3.9589  Tot=              4.1198
 Quadrupole moment (field-independent basis, Debye-Ang):
   XX=           -175.5086   YY=           -169.5160   ZZ=           -165.4896
   XY=              0.0081   XZ=            -23.3586   YZ=             -0.0032
 Traceless Quadrupole moment (field-independent basis, Debye-Ang):
   XX=             -5.3372   YY=              0.6554   ZZ=              4.6818
   XY=              0.0081   XZ=            -23.3586   YZ=             -0.0032
 Octapole moment (field-independent basis, Debye-Ang**2):
  XXX=            -15.6539  YYY=             -0.0046  ZZZ=             14.3188  XYY=             58.8373
  XXY=             -0.0387  XXZ=            130.6656  XZZ=            -23.2503  YZZ=             -0.0031
  YYZ=              2.4527  XYZ=              0.0193
 Hexadecapole moment (field-independent basis, Debye-Ang**3):
 XXXX=         -11915.3859 YYYY=          -2951.3743 ZZZZ=          -1727.3628 XXXY=              0.1733
 XXXZ=           -470.9854 YYYX=             -0.0150 YYYZ=              0.1104 ZZZX=           -136.0472
 ZZZY=             -0.1420 XXYY=          -2617.1489 XXZZ=          -2473.8314 YYZZ=           -948.0955
 XXYZ=             -0.0072 YYXZ=             27.8587 ZZXY=              0.0527
 N-N= 2.721507680775D+03 E-N=-9.183655587954D+03  KE= 1.589307632025D+03
 No NMR shielding tensors so no spin-rotation constants.
 Leave Link  601 at Mon Jan 19 15:00:35 2026, MaxMem=  8053063680 cpu:               2.9 elap:               0.3
 (Enter /appl/Gaussian16/AVX_revB01/g16/l9999.exe)
 1\1\GINC-CNODE13\FOpt\RB3LYP\6-31G(d)\C24H15N1O3S1\JUNHKIM\19-Jan-2026
 \0\\#P b3lyp/6-31g* opt SCF=XQC\\Gaussian input prepared by ASE\\0,1\O
 ,4.5293140413,0.4633528625,-2.645994594\S,3.9969800343,1.2825622532,-1
 .547696474\O,4.2445872301,2.7315062171,-1.5464652694\C,4.4173343675,0.
 561906214,0.0477661122\C,5.6903584746,0.4603408552,0.5869106556\C,5.82
 07517197,-0.1338444556,1.8464204423\C,4.6922588997,-0.6044548891,2.525
 0434519\C,3.4168241244,-0.4932670171,1.9654232944\C,3.2713291739,0.097
 7209842,0.7085988685\C,2.0282557387,0.3151895391,-0.0618912566\C,0.721
 7633764,-0.0220420752,0.2954863679\C,-0.3301218455,0.2709972295,-0.581
 3890251\N,-1.6670492975,-0.0751916706,-0.2134120503\C,-2.4800147441,0.
 854744921,0.4700103133\C,-2.0367005172,2.1325426595,0.8266647454\C,-2.
 8782954155,3.017341586,1.5087270822\C,-4.1746134918,2.6391638943,1.842
 2982906\C,-4.6296568256,1.364808766,1.4894897794\C,-3.7937597391,0.486
 6359977,0.8151756759\O,-4.3101494647,-0.7573552639,0.5094206444\C,-3.5
 274558968,-1.6357774943,-0.2140576965\C,-4.1005412653,-2.8521736366,-0
 .5554738096\C,-3.3669713582,-3.7975782125,-1.2790792101\C,-2.059857509
 1,-3.5053740521,-1.6543106688\C,-1.4833013427,-2.2778584922,-1.3120405
 494\C,-2.2065083803,-1.3250516664,-0.587040998\C,-0.0844760624,0.89782
 82699,-1.8108791638\C,1.2194020393,1.2403593449,-2.179882826\C,2.24549
 19149,0.9412509453,-1.2971564382\H,6.5567178025,0.8305698611,0.0474846
 908\H,6.8037677378,-0.2292163607,2.2976964209\H,4.80680803,-1.06392521
 56,3.5025465998\H,2.5509513736,-0.8640849043,2.5061814655\H,0.49964157
 96,-0.507969114,1.2403854575\H,-1.0285887817,2.4385450162,0.5706282136
 \H,-2.5063015735,4.0028082775,1.7730892673\H,-4.8337345674,3.320748565
 6,2.3710475358\H,-5.6339509563,1.0310307862,1.7309886579\H,-5.12302563
 37,-3.041004669,-0.2436971492\H,-3.8213312059,-4.7479226758,-1.5417132
 383\H,-1.4738021279,-4.2258688329,-2.2171940032\H,-0.464075317,-2.0603
 647805,-1.6109659338\H,-0.9198535471,1.112311872,-2.469634645\H,1.4216
 022079,1.72605856,-3.1294880337\\Version=ES64L-G16RevB.01\State=1-A\HF
 =-1602.1297519\RMSD=2.969e-09\RMSF=7.917e-07\Dipole=-0.2782404,-0.7246
 927,1.4228595\Quadrupole=-0.1948959,-1.2324938,1.4273897,-7.7676527,15
 .8479172,1.5350131\PG=C01 [X(C24H15N1O3S1)]\\@


      LET US REMEMBER, PLEASE, THAT THE SEARCH FOR THE CONSTITUTION
      OF THE WORLD IS ONE OF THE GREATEST AND NOBLEST PROBLEMS PRESENTED 
      BY NATURE.

                                                  -- GALILEO
 Job cpu time:       0 days  5 hours 52 minutes 42.0 seconds.
 Elapsed time:       0 days  0 hours 22 minutes 20.7 seconds.
 File lengths (MBytes):  RWF=    154 Int=      0 D2E=      0 Chk=     19 Scr=      2
 Normal termination of Gaussian 16 at Mon Jan 19 15:00:36 2026.
