
                                 *****************
                                 * O   R   C   A *
                                 *****************

           --- An Ab Initio, DFT and Semiempirical electronic structure package ---

                  #######################################################
                  #                        -***-                        #
                  #          Department of theory and spectroscopy      #
                  #               Directorship: Frank Neese             #
                  #        Max Planck Institute fuer Kohlenforschung    #
                  #                Kaiser Wilhelm Platz 1               #
                  #                 D-45470 Muelheim/Ruhr               #
                  #                      Germany                        #
                  #                                                     #
                  #                  All rights reserved                #
                  #                        -***-                        #
                  #######################################################


                         Program Version 4.2.1 -  RELEASE  -


 With contributions from (in alphabetic order):
   Daniel Aravena         : Magnetic Suceptibility
   Michael Atanasov       : Ab Initio Ligand Field Theory (pilot matlab implementation)
   Alexander A. Auer      : GIAO ZORA, VPT2
   Ute Becker             : Parallelization
   Giovanni Bistoni       : ED, misc. LED, open-shell LED, HFLD
   Martin Brehm           : Molecular dynamics
   Dmytro Bykov           : SCF Hessian
   Vijay G. Chilkuri      : MRCI spin determinant printing, contributions to CSF-ICE
   Dipayan Datta          : RHF DLPNO-CCSD density
   Achintya Kumar Dutta   : EOM-CC, STEOM-CC
   Dmitry Ganyushin       : Spin-Orbit,Spin-Spin,Magnetic field MRCI
   Miquel Garcia          : C-PCM Hessian, Gaussian charge scheme
   Yang Guo               : DLPNO-NEVPT2, CIM, IAO-localization
   Andreas Hansen         : Spin unrestricted coupled pair/coupled cluster methods
   Benjamin Helmich-Paris : CASSCF linear response (MC-RPA)
   Lee Huntington         : MR-EOM, pCC
   Robert Izsak           : Overlap fitted RIJCOSX, COSX-SCS-MP3, EOM
   Christian Kollmar      : KDIIS, OOCD, Brueckner-CCSD(T), CCSD density
   Simone Kossmann        : Meta GGA functionals, TD-DFT gradient, OOMP2, MP2 Hessian
   Martin Krupicka        : AUTO-CI
   Lucas Lang             : DCDCAS
   Dagmar Lenk            : GEPOL surface, SMD
   Dimitrios Liakos       : Extrapolation schemes; Compound Job, initial MDCI parallelization
   Dimitrios Manganas     : Further ROCIS development; embedding schemes
   Dimitrios Pantazis     : SARC Basis sets
   Taras Petrenko         : DFT Hessian,TD-DFT gradient, ASA, ECA, R-Raman, ABS, FL, XAS/XES, NRVS
   Peter Pinski           : DLPNO-MP2, DLPNO-MP2 Gradient
   Christoph Reimann      : Effective Core Potentials
   Marius Retegan         : Local ZFS, SOC
   Christoph Riplinger    : Optimizer, TS searches, QM/MM, DLPNO-CCSD(T), (RO)-DLPNO pert. Triples
   Tobias Risthaus        : Range-separated hybrids, TD-DFT gradient, RPA, STAB
   Michael Roemelt        : Original ROCIS implementation
   Masaaki Saitow         : Open-shell DLPNO-CCSD energy and density
   Barbara Sandhoefer     : DKH picture change effects
   Avijit Sen             : IP-ROCIS
   Kantharuban Sivalingam : CASSCF convergence, NEVPT2, FIC-MRCI
   Bernardo de Souza      : ESD, SOC TD-DFT
   Georgi Stoychev        : AutoAux, RI-MP2 NMR
   Willem Van den Heuvel  : Paramagnetic NMR
   Boris Wezisla          : Elementary symmetry handling
   Frank Wennmohs         : Technical directorship


 We gratefully acknowledge several colleagues who have allowed us to
 interface, adapt or use parts of their codes:
   Stefan Grimme, W. Hujo, H. Kruse,             : VdW corrections, initial TS optimization,
                  C. Bannwarth                     DFT functionals, gCP, sTDA/sTD-DF
   Ed Valeev, F. Pavosevic, A. Kumar             : LibInt (2-el integral package), F12 methods
   Garnet Chan, S. Sharma, J. Yang, R. Olivares  : DMRG
   Ulf Ekstrom                                   : XCFun DFT Library
   Mihaly Kallay                                 : mrcc  (arbitrary order and MRCC methods)
   Andreas Klamt, Michael Diedenhofen            : otool_cosmo (COSMO solvation model)
   Jiri Pittner, Ondrej Demel                    : Mk-CCSD
   Frank Weinhold                                : gennbo (NPA and NBO analysis)
   Christopher J. Cramer and Donald G. Truhlar   : smd solvation model
   Lars Goerigk                                  : TD-DFT with DH, B97 family of functionals
   V. Asgeirsson, H. Jonsson                     : NEB implementation
   FAccTs GmbH                                   : IRC, NEB, NEB-TS, Multilevel, MM, QM/MM, CI optimization
   S Lehtola, MJT Oliveira, MAL Marques          : LibXC Library


 Your calculation uses the libint2 library for the computation of 2-el integrals
 For citations please refer to: http://libint.valeyev.net

 Your ORCA version has been built with support for libXC version: 4.2.3
 For citations please refer to: https://tddft.org/programs/libxc/

 This ORCA versions uses:
   CBLAS   interface :  Fast vector & matrix operations
   LAPACKE interface :  Fast linear algebra routines
   SCALAPACK package :  Parallel linear algebra routines


Your calculation utilizes the semiempirical GFN2-xTB method
Please cite in your paper:
C. Bannwarth, Ehlert S., S. Grimme,  J. Chem. Theory Comput., 15, (2019), 1652.
   

----- Orbital basis set information -----
Your calculation utilizes the basis: def2-SVP
   F. Weigend and R. Ahlrichs, Phys. Chem. Chem. Phys. 7, 3297 (2005).

================================================================================
                                        WARNINGS
                       Please study these warnings very carefully!
================================================================================


WARNING: Geometry Optimization
  ===> : Switching off AutoStart
         For restart on a previous wavefunction, please use MOREAD

WARNING: Found dipole moment calculation with XTB calculation
  ===> : Switching off dipole moment calculation


WARNING: otool_xtb not available.
         Trying xtb instead   ... done.
  ===> : Now using xtb as program name.


INFO   : the flag for use of LIBINT has been found!

================================================================================
                                       INPUT FILE
================================================================================
NAME = pre_opt.inp
|  1> ! XTB2 Opt
|  2> * xyz 0 1
|  3> O      4.540104    0.665972   -2.684589
|  4> S      3.971563    1.356340   -1.477469
|  5> O      4.282898    2.825780   -1.449164
|  6> C      4.386095    0.551852    0.015225
|  7> C      5.665575    0.398975    0.548011
|  8> C      5.809950   -0.281101    1.766371
|  9> C      4.681568   -0.795438    2.430718
| 10> C      3.399480   -0.633986    1.882335
| 11> C      3.266777    0.045955    0.666871
| 12> C      2.028210    0.323082   -0.075173
| 13> C      0.724282   -0.035251    0.279747
| 14> C     -0.335246    0.324681   -0.572470
| 15> N     -1.683547   -0.033589   -0.229434
| 16> C     -2.544073    0.917205    0.443971
| 17> C     -2.100403    2.210356    0.792766
| 18> C     -2.959649    3.100718    1.443224
| 19> C     -4.264892    2.715598    1.755110
| 20> C     -4.715306    1.437379    1.419348
| 21> C     -3.862356    0.539656    0.768948
| 22> O     -4.327453   -0.737267    0.445514
| 23> C     -3.520175   -1.676339   -0.200939
| 24> C     -4.039953   -2.940232   -0.499031
| 25> C     -3.248268   -3.889347   -1.148548
| 26> C     -1.934450   -3.578063   -1.503836
| 27> C     -1.406549   -2.317511   -1.209809
| 28> C     -2.194384   -1.350444   -0.550343
| 29> C     -0.076871    1.035375   -1.762316
| 30> C      1.235382    1.389279   -2.106288
| 31> C      2.273010    1.024123   -1.250315
| 32> H      6.530136    0.796557    0.032650
| 33> H      6.794278   -0.410669    2.197133
| 34> H      4.802612   -1.318810    3.370255
| 35> H      2.536057   -1.031962    2.398138
| 36> H      0.525787   -0.580924    1.192638
| 37> H     -1.094303    2.537787    0.568016
| 38> H     -2.612143    4.091386    1.706712
| 39> H     -4.927301    3.407597    2.258926
| 40> H     -5.727350    1.142191    1.665459
| 41> H     -5.058810   -3.185275   -0.227325
| 42> H     -3.653696   -4.866301   -1.378042
| 43> H     -1.323430   -4.314902   -2.009141
| 44> H     -0.386462   -2.106337   -1.501007
| 45> H     -0.894417    1.311017   -2.416178
| 46> H      1.437726    1.934887   -3.018648
| 47> *
| 48> 
| 49>                          ****END OF INPUT****
================================================================================

                       *****************************
                       * Geometry Optimization Run *
                       *****************************

Geometry optimization settings:
Update method            Update   .... BFGS
Choice of coordinates    CoordSys .... Z-matrix Internals
Initial Hessian          InHess   .... Almoef's Model

Convergence Tolerances:
Energy Change            TolE     ....  5.0000e-06 Eh
Max. Gradient            TolMAXG  ....  3.0000e-04 Eh/bohr
RMS Gradient             TolRMSG  ....  1.0000e-04 Eh/bohr
Max. Displacement        TolMAXD  ....  4.0000e-03 bohr
RMS Displacement         TolRMSD  ....  2.0000e-03 bohr
Strict Convergence                ....  False
------------------------------------------------------------------------------
                        ORCA OPTIMIZATION COORDINATE SETUP
------------------------------------------------------------------------------

The optimization will be done in new redundant internal coordinates
Making redundant internal coordinates   ...  (new redundants) done
Evaluating the initial hessian          ...  (Almloef) done
Evaluating the coordinates              ...  done
Calculating the B-matrix                .... done
Calculating the G-matrix                .... done
Diagonalizing the G-matrix              .... done
Small eigenvalue found = 3.332e-03
Small eigenvalue found = 5.403e-03
Small eigenvalue found = 1.134e-02
Small eigenvalue found = 1.867e-02
The first mode is                       ....  133
The number of degrees of freedom        ....  126

    -----------------------------------------------------------------
                    Redundant Internal Coordinates


    -----------------------------------------------------------------
         Definition                    Initial Value    Approx d2E/dq
    -----------------------------------------------------------------
      1. B(S   1,O   0)                  1.5023         0.998696   
      2. B(O   2,S   1)                  1.5023         0.998697   
      3. B(C   3,S   1)                  1.7456         0.456189   
      4. B(C   4,C   3)                  1.3944         0.614819   
      5. B(C   5,C   4)                  1.4028         0.596175   
      6. B(C   6,C   5)                  1.4068         0.587356   
      7. B(C   7,C   6)                  1.4038         0.594000   
      8. B(C   8,C   7)                  1.3990         0.604412   
      9. B(C   8,C   3)                  1.3905         0.623685   
     10. B(C   9,C   8)                  1.4702         0.465362   
     11. B(C  10,C   9)                  1.3981         0.606546   
     12. B(C  11,C  10)                  1.4066         0.587910   
     13. B(N  12,C  11)                  1.4366         0.471474   
     14. B(C  13,N  12)                  1.4484         0.451474   
     15. B(C  14,C  13)                  1.4109         0.578544   
     16. B(C  15,C  14)                  1.3979         0.606909   
     17. B(C  16,C  15)                  1.3962         0.610827   
     18. B(C  17,C  16)                  1.3962         0.610664   
     19. B(C  18,C  17)                  1.3987         0.605073   
     20. B(C  18,C  13)                  1.4093         0.582110   
     21. B(O  19,C  18)                  1.3969         0.545499   
     22. B(C  20,O  19)                  1.3969         0.545500   
     23. B(C  21,C  20)                  1.3987         0.605070   
     24. B(C  22,C  21)                  1.3962         0.610660   
     25. B(C  23,C  22)                  1.3962         0.610831   
     26. B(C  24,C  23)                  1.3979         0.606926   
     27. B(C  25,C  24)                  1.4110         0.578501   
     28. B(C  25,C  20)                  1.4093         0.582118   
     29. B(C  25,N  12)                  1.4485         0.451442   
     30. B(C  26,C  11)                  1.4098         0.580933   
     31. B(C  27,C  26)                  1.4020         0.597876   
     32. B(C  28,C  27)                  1.3938         0.616117   
     33. B(C  28,C   9)                  1.3901         0.624595   
     34. B(C  28,S   1)                  1.7456         0.456248   
     35. B(H  29,C   4)                  1.0822         0.370582   
     36. B(H  30,C   5)                  1.0822         0.370512   
     37. B(H  31,C   6)                  1.0823         0.370478   
     38. B(H  32,C   7)                  1.0816         0.371336   
     39. B(H  33,C  10)                  1.0819         0.370963   
     40. B(H  34,C  14)                  1.0816         0.371321   
     41. B(H  35,C  15)                  1.0824         0.370283   
     42. B(H  36,C  16)                  1.0823         0.370365   
     43. B(H  37,C  17)                  1.0826         0.370076   
     44. B(H  38,C  21)                  1.0826         0.370076   
     45. B(H  39,C  22)                  1.0823         0.370365   
     46. B(H  40,C  23)                  1.0824         0.370283   
     47. B(H  41,C  24)                  1.0817         0.371316   
     48. B(H  42,C  26)                  1.0825         0.370103   
     49. B(H  43,C  27)                  1.0821         0.370646   
     50. A(O   0,S   1,O   2)          112.7174         0.572571   
     51. A(O   2,S   1,C  28)          112.6657         0.496851   
     52. A(O   0,S   1,C   3)          112.6706         0.496839   
     53. A(C   3,S   1,C  28)           91.8387         0.432977   
     54. A(O   0,S   1,C  28)          112.6653         0.496851   
     55. A(O   2,S   1,C   3)          112.6717         0.496839   
     56. A(S   1,C   3,C   4)          126.5243         0.432862   
     57. A(S   1,C   3,C   8)          112.1640         0.433979   
     58. A(C   4,C   3,C   8)          121.3117         0.433874   
     59. A(C   3,C   4,H  29)          120.7189         0.354124   
     60. A(C   3,C   4,C   5)          118.6501         0.430370   
     61. A(C   5,C   4,H  29)          120.6310         0.352283   
     62. A(C   6,C   5,H  30)          119.8533         0.351385   
     63. A(C   4,C   5,H  30)          119.8253         0.352272   
     64. A(C   4,C   5,C   6)          120.3214         0.426858   
     65. A(C   5,C   6,H  31)          119.8050         0.351380   
     66. A(C   5,C   6,C   7)          120.3998         0.426578   
     67. A(C   7,C   6,H  31)          119.7953         0.352048   
     68. A(C   8,C   7,H  32)          121.1585         0.353223   
     69. A(C   6,C   7,C   8)          118.8113         0.428772   
     70. A(C   6,C   7,H  32)          120.0303         0.352186   
     71. A(C   7,C   8,C   9)          127.5910         0.410512   
     72. A(C   3,C   8,C   9)          111.9033         0.412804   
     73. A(C   3,C   8,C   7)          120.5057         0.432544   
     74. A(C   8,C   9,C  10)          127.5373         0.410769   
     75. A(C  10,C   9,C  28)          120.5383         0.432931   
     76. A(C   8,C   9,C  28)          111.9244         0.412911   
     77. A(C  11,C  10,H  33)          120.1387         0.351513   
     78. A(C   9,C  10,H  33)          120.9700         0.353374   
     79. A(C   9,C  10,C  11)          118.8914         0.428251   
     80. A(N  12,C  11,C  26)          119.9493         0.405954   
     81. A(C  10,C  11,C  26)          120.1521         0.424954   
     82. A(C  10,C  11,N  12)          119.8986         0.406812   
     83. A(C  11,N  12,C  25)          120.3186         0.385906   
     84. A(C  13,N  12,C  25)          119.3576         0.383008   
     85. A(C  11,N  12,C  13)          120.3236         0.385911   
     86. A(C  14,C  13,C  18)          118.8609         0.423889   
     87. A(N  12,C  13,C  18)          119.1501         0.403004   
     88. A(N  12,C  13,C  14)          121.9880         0.402568   
     89. A(C  13,C  14,H  34)          121.2361         0.350618   
     90. A(C  13,C  14,C  15)          120.3646         0.427066   
     91. A(C  15,C  14,H  34)          118.3992         0.353468   
     92. A(C  14,C  15,C  16)          120.1917         0.431247   
     93. A(C  16,C  15,H  35)          119.8828         0.353685   
     94. A(C  14,C  15,H  35)          119.9254         0.353300   
     95. A(C  15,C  16,C  17)          120.0262         0.431725   
     96. A(C  17,C  16,H  36)          119.9881         0.353683   
     97. A(C  15,C  16,H  36)          119.9856         0.353699   
     98. A(C  16,C  17,C  18)          120.1767         0.430991   
     99. A(C  18,C  17,H  37)          120.0520         0.353086   
    100. A(C  16,C  17,H  37)          119.7712         0.353636   
    101. A(C  17,C  18,O  19)          119.4262         0.419624   
    102. A(C  13,C  18,O  19)          120.1948         0.416741   
    103. A(C  13,C  18,C  17)          120.3790         0.427305   
    104. A(C  18,O  19,C  20)          121.9526         0.409301   
    105. A(O  19,C  20,C  21)          119.4263         0.419624   
    106. A(C  21,C  20,C  25)          120.3790         0.427305   
    107. A(O  19,C  20,C  25)          120.1947         0.416743   
    108. A(C  20,C  21,C  22)          120.1770         0.430991   
    109. A(C  22,C  21,H  38)          119.7711         0.353636   
    110. A(C  20,C  21,H  38)          120.0519         0.353085   
    111. A(C  21,C  22,C  23)          120.0263         0.431725   
    112. A(C  23,C  22,H  39)          119.9855         0.353699   
    113. A(C  21,C  22,H  39)          119.9881         0.353682   
    114. A(C  24,C  23,H  40)          119.9252         0.353302   
    115. A(C  22,C  23,H  40)          119.8830         0.353686   
    116. A(C  22,C  23,C  24)          120.1917         0.431249   
    117. A(C  25,C  24,H  41)          121.2388         0.350613   
    118. A(C  23,C  24,H  41)          118.3965         0.353469   
    119. A(C  23,C  24,C  25)          120.3647         0.427063   
    120. A(C  20,C  25,C  24)          118.8606         0.423884   
    121. A(N  12,C  25,C  24)          121.9886         0.402557   
    122. A(N  12,C  25,C  20)          119.1500         0.403000   
    123. A(C  11,C  26,C  27)          120.3881         0.426235   
    124. A(C  27,C  26,H  42)          119.6306         0.352376   
    125. A(C  11,C  26,H  42)          119.9813         0.350668   
    126. A(C  26,C  27,C  28)          118.6854         0.430753   
    127. A(C  28,C  27,H  43)          120.7079         0.354261   
    128. A(C  26,C  27,H  43)          120.6067         0.352463   
    129. A(C   9,C  28,C  27)          121.3447         0.434152   
    130. A(S   1,C  28,C  27)          126.4857         0.433037   
    131. A(S   1,C  28,C   9)          112.1696         0.434103   
    132. D(C   4,C   3,S   1,O   0)     64.4325         0.005204   
    133. D(C   8,C   3,S   1,C  28)     -0.0061         0.005204   
    134. D(C   4,C   3,S   1,C  28)    179.9786         0.005204   
    135. D(C   8,C   3,S   1,O   0)   -115.5522         0.005204   
    136. D(C   8,C   3,S   1,O   2)    115.5408         0.005204   
    137. D(C   4,C   3,S   1,O   2)    -64.4745         0.005204   
    138. D(C   5,C   4,C   3,S   1)   -179.9830         0.026130   
    139. D(H  29,C   4,C   3,C   8)    179.9970         0.026130   
    140. D(H  29,C   4,C   3,S   1)      0.0136         0.026130   
    141. D(C   5,C   4,C   3,C   8)      0.0004         0.026130   
    142. D(H  30,C   5,C   4,H  29)      0.0030         0.024485   
    143. D(H  30,C   5,C   4,C   3)    179.9996         0.024485   
    144. D(C   6,C   5,C   4,H  29)   -179.9931         0.024485   
    145. D(C   6,C   5,C   4,C   3)      0.0034         0.024485   
    146. D(C   7,C   6,C   5,H  30)   -179.9979         0.023730   
    147. D(H  31,C   6,C   5,H  30)     -0.0007         0.023730   
    148. D(H  31,C   6,C   5,C   4)    179.9954         0.023730   
    149. D(C   7,C   6,C   5,C   4)     -0.0018         0.023730   
    150. D(H  32,C   7,C   6,H  31)     -0.0050         0.024298   
    151. D(H  32,C   7,C   6,C   5)    179.9923         0.024298   
    152. D(C   8,C   7,C   6,H  31)    179.9991         0.024298   
    153. D(C   8,C   7,C   6,C   5)     -0.0037         0.024298   
    154. D(C   9,C   8,C   7,H  32)     -0.0107         0.025204   
    155. D(C   3,C   8,C   7,H  32)   -179.9884         0.025204   
    156. D(C   9,C   8,C   7,C   6)    179.9852         0.025204   
    157. D(C   7,C   8,C   3,C   4)     -0.0060         0.026936   
    158. D(C   9,C   8,C   3,S   1)     -0.0013         0.026936   
    159. D(C   9,C   8,C   3,C   4)   -179.9869         0.026936   
    160. D(C   7,C   8,C   3,S   1)    179.9796         0.026936   
    161. D(C   3,C   8,C   7,C   6)      0.0075         0.025204   
    162. D(C  10,C   9,C   8,C   3)    179.9908         0.014749   
    163. D(C  28,C   9,C   8,C   7)   -179.9687         0.014749   
    164. D(C  28,C   9,C   8,C   3)      0.0106         0.014749   
    165. D(C  10,C   9,C   8,C   7)      0.0115         0.014749   
    166. D(H  33,C  10,C   9,C  28)    179.9953         0.025392   
    167. D(C  11,C  10,C   9,C  28)      0.0410         0.025392   
    168. D(C  11,C  10,C   9,C   8)   -179.9376         0.025392   
    169. D(H  33,C  10,C   9,C   8)      0.0167         0.025392   
    170. D(C  26,C  11,C  10,H  33)   -179.9803         0.023777   
    171. D(C  26,C  11,C  10,C   9)     -0.0256         0.023777   
    172. D(N  12,C  11,C  10,H  33)     -0.0112         0.023777   
    173. D(N  12,C  11,C  10,C   9)    179.9435         0.023777   
    174. D(C  25,N  12,C  11,C  26)     96.4432         0.017523   
    175. D(C  25,N  12,C  11,C  10)    -83.5259         0.017523   
    176. D(C  13,N  12,C  11,C  26)    -83.7285         0.017523   
    177. D(C  13,N  12,C  11,C  10)     96.3023         0.017523   
    178. D(C  18,C  13,N  12,C  25)     -0.1668         0.016053   
    179. D(C  18,C  13,N  12,C  11)   -179.9967         0.016053   
    180. D(C  14,C  13,N  12,C  25)    179.4560         0.016053   
    181. D(C  14,C  13,N  12,C  11)     -0.3739         0.016053   
    182. D(H  34,C  14,C  13,C  18)    179.5717         0.022991   
    183. D(C  15,C  14,C  13,C  18)     -0.3304         0.022991   
    184. D(C  15,C  14,C  13,N  12)   -179.9543         0.022991   
    185. D(H  34,C  14,C  13,N  12)     -0.0522         0.022991   
    186. D(H  35,C  15,C  14,H  34)      0.1512         0.025424   
    187. D(H  35,C  15,C  14,C  13)   -179.9439         0.025424   
    188. D(C  16,C  15,C  14,H  34)   -179.7997         0.025424   
    189. D(C  16,C  15,C  14,C  13)      0.1051         0.025424   
    190. D(H  36,C  16,C  15,H  35)      0.0390         0.025773   
    191. D(C  17,C  16,C  15,H  35)   -179.8539         0.025773   
    192. D(H  36,C  16,C  15,C  14)    179.9900         0.025773   
    193. D(C  17,C  16,C  15,C  14)      0.0970         0.025773   
    194. D(C  18,C  17,C  16,C  15)     -0.0682         0.025758   
    195. D(H  37,C  17,C  16,H  36)     -0.0528         0.025758   
    196. D(H  37,C  17,C  16,C  15)    179.8401         0.025758   
    197. D(C  18,C  17,C  16,H  36)   -179.9612         0.025758   
    198. D(O  19,C  18,C  17,H  37)     -0.1841         0.025262   
    199. D(O  19,C  18,C  17,C  16)    179.7240         0.025262   
    200. D(C  13,C  18,C  17,H  37)    179.9289         0.025262   
    201. D(C  13,C  18,C  17,C  16)     -0.1630         0.025262   
    202. D(O  19,C  18,C  13,C  14)   -179.5270         0.023288   
    203. D(O  19,C  18,C  13,N  12)      0.1077         0.023288   
    204. D(C  17,C  18,C  13,C  14)      0.3592         0.023288   
    205. D(C  17,C  18,C  13,N  12)    179.9939         0.023288   
    206. D(C  20,O  19,C  18,C  17)   -179.8525         0.021506   
    207. D(C  20,O  19,C  18,C  13)      0.0347         0.021506   
    208. D(C  25,C  20,O  19,C  18)     -0.1175         0.021506   
    209. D(C  21,C  20,O  19,C  18)    179.9619         0.021506   
    210. D(H  38,C  21,C  20,C  25)    179.9392         0.025262   
    211. D(H  38,C  21,C  20,O  19)     -0.1404         0.025262   
    212. D(C  22,C  21,C  20,C  25)     -0.1215         0.025262   
    213. D(C  22,C  21,C  20,O  19)    179.7990         0.025262   
    214. D(H  39,C  22,C  21,H  38)     -0.0392         0.025758   
    215. D(H  39,C  22,C  21,C  20)   -179.9787         0.025758   
    216. D(C  23,C  22,C  21,H  38)    179.8694         0.025758   
    217. D(C  23,C  22,C  21,C  20)     -0.0702         0.025758   
    218. D(H  40,C  23,C  22,H  39)      0.0359         0.025773   
    219. D(H  40,C  23,C  22,C  21)   -179.8727         0.025773   
    220. D(C  24,C  23,C  22,H  39)    179.9850         0.025773   
    221. D(C  24,C  23,C  22,C  21)      0.0765         0.025773   
    222. D(H  41,C  24,C  23,H  40)      0.1410         0.025426   
    223. D(H  41,C  24,C  23,C  22)   -179.8081         0.025426   
    224. D(C  25,C  24,C  23,H  40)   -179.9422         0.025426   
    225. D(C  25,C  24,C  23,C  22)      0.1087         0.025426   
    226. D(C  20,C  25,C  24,H  41)    179.6192         0.022987   
    227. D(C  20,C  25,C  24,C  23)     -0.2951         0.022987   
    228. D(N  12,C  25,C  24,H  41)     -0.0430         0.022987   
    229. D(N  12,C  25,C  24,C  23)   -179.9574         0.022987   
    230. D(C  24,C  25,C  20,C  21)      0.3015         0.023289   
    231. D(C  24,C  25,C  20,O  19)   -179.6184         0.023289   
    232. D(N  12,C  25,C  20,C  21)    179.9734         0.023289   
    233. D(N  12,C  25,C  20,O  19)      0.0536         0.023289   
    234. D(C  24,C  25,N  12,C  13)    179.7480         0.016051   
    235. D(C  24,C  25,N  12,C  11)     -0.4221         0.016051   
    236. D(C  20,C  25,N  12,C  13)      0.0867         0.016051   
    237. D(C  20,C  25,N  12,C  11)    179.9167         0.016051   
    238. D(H  42,C  26,C  11,N  12)      0.0330         0.023190   
    239. D(H  42,C  26,C  11,C  10)   -179.9979         0.023190   
    240. D(C  27,C  26,C  11,N  12)   -179.9771         0.023190   
    241. D(C  27,C  26,C  11,C  10)     -0.0080         0.023190   
    242. D(H  43,C  27,C  26,H  42)     -0.0021         0.024633   
    243. D(H  43,C  27,C  26,C  11)   -179.9921         0.024633   
    244. D(C  28,C  27,C  26,H  42)   -179.9838         0.024633   
    245. D(C  28,C  27,C  26,C  11)      0.0262         0.024633   
    246. D(S   1,C  28,C  27,H  43)     -0.0229         0.026247   
    247. D(S   1,C  28,C  27,C  26)    179.9588         0.026247   
    248. D(C  27,C  28,C   9,C  10)     -0.0230         0.027020   
    249. D(C  27,C  28,C   9,C   8)    179.9587         0.027020   
    250. D(S   1,C  28,C   9,C  10)   -179.9968         0.027020   
    251. D(S   1,C  28,C   9,C   8)     -0.0151         0.027020   
    252. D(C  27,C  28,S   1,C   3)   -179.9599         0.005206   
    253. D(C  27,C  28,S   1,O   2)     64.4880         0.005206   
    254. D(C  27,C  28,S   1,O   0)    -64.4091         0.005206   
    255. D(C   9,C  28,S   1,C   3)      0.0123         0.005206   
    256. D(C   9,C  28,S   1,O   2)   -115.5398         0.005206   
    257. D(C   9,C  28,C  27,C  26)     -0.0110         0.026247   
    258. D(C   9,C  28,S   1,O   0)    115.5630         0.005206   
    259. D(C   9,C  28,C  27,H  43)   -179.9927         0.026247   
    -----------------------------------------------------------------

Number of atoms                         .... 44
Number of degrees of freedom            .... 259

         *************************************************************
         *                GEOMETRY OPTIMIZATION CYCLE   1            *
         *************************************************************
      -----------------------------------------------------------      
     |                   =====================                   |     
     |                           x T B                           |     
     |                   =====================                   |     
     |                         S. Grimme                         |     
     |          Mulliken Center for Theoretical Chemistry        |     
     |                    University of Bonn                     |     
      -----------------------------------------------------------      

   * xtb version 6.2.3 (830e466) compiled by 'ehlert@majestix' on 2020-03-16

   xtb is free software: you can redistribute it and/or modify it under
   the terms of the GNU Lesser General Public License as published by
   the Free Software Foundation, either version 3 of the License, or
   (at your option) any later version.
   
   xtb is distributed in the hope that it will be useful,
   but WITHOUT ANY WARRANTY; without even the implied warranty of
   MERCHANTABILITY or FITNESS FOR A PARTICULAR PURPOSE.  See the
   GNU Lesser General Public License for more details.
   
   Cite this work as:
   * S. Grimme, C. Bannwarth, P. Shushkov, J. Chem. Theory Comput., 2017,
     13, 1989-2009. DOI: 10.1021/acs.jctc.7b00118
   * C. Bannwarth, S. Ehlert and S. Grimme., J. Chem. Theory Comput., 2019,
     15, 1652-1671. DOI: 10.1021/acs.jctc.8b01176
   * P. Pracht, E. Caldeweyher, S. Ehlert, S. Grimme, ChemRxiv, 2019, preprint.
     DOI: 10.26434/chemrxiv.8326202.v1
   
   for DFT-D4:
   * E. Caldeweyher, C. Bannwarth and S. Grimme, J. Chem. Phys., 2017,
     147, 034112. DOI: 10.1063/1.4993215
   * E. Caldeweyher, S. Ehlert, A. Hansen, H. Neugebauer, S. Spicher,
     C. Bannwarth and S. Grimme, J. Chem. Phys., 2019, 150, 154122.
     DOI: 10.1063/1.5090222
   
   for sTDA-xTB:
   * S. Grimme and C. Bannwarth, J. Chem. Phys., 2016, 145, 054103.
     DOI: 10.1063/1.4959605
   
   in the mass-spec context:
   * V. Asgeirsson, C. Bauer and S. Grimme, Chem. Sci., 2017, 8, 4879.
     DOI: 10.1039/c7sc00601b
   
   for metadynamics refer to:
   * S. Grimme, J. Chem. Theory Comput., 2019, 155, 2847-2862
     DOI: 10.1021/acs.jctc.9b00143
   
   with help from (in alphabetical order)
   C. Bannwarth, F. Bohle, G. Brandenburg, E. Caldeweyher, M. Checinski,
   S. Dohm, S. Ehlert, S. Ehrlich, F. März, H. Neugebauer, J. Pisarek,
   P. Pracht, P. Shushkov, and S. Spicher.
   
 * started run on 2026/01/19 at 14:36:35.252     

           -------------------------------------------------
          |                Calculation Setup                |
           -------------------------------------------------

          program call               : /appl/orca_4.2.1/orca_4_2_1_linux_x86-64_openmpi314/xtb pre_opt_XTB.xyz --grad -c 0 -u 0 -P 1 --namespace pre_opt
          hostname                   : cnode13
          calculation namespace      : pre_opt
          coordinate file            : pre_opt_XTB.xyz
          omp threads                :                     1
          number of atoms            :                    44
          number of electrons        :                   140
          charge                     :                     0
          spin                       :                   0.0
          first test random number   :      0.93438008354153

########################################################################
[WARNING] Please study the warnings concerning your input carefully
-2- prog_main: XTBPATH is not set, using XTBHOME instead
-1- prog_main: XTBHOME is not set, using HOME instead
########################################################################
           ------------------------------------------------- 
          |                 G F N 2 - x T B                 |
          | Geometry, Frequencies, Noncovalent interactions |
          |            JCTC 2019 parametrisation            |
           ------------------------------------------------- 
             k(s)              :                1.8500
             k(p)              :                2.2300
             k(d)              :                2.2300
             k(f)              :                2.0000
             kEN (H0ij)        :               -2.0000
             D4 a1             :                0.5200
             D4 a2             :                5.0000
             D4 s6             :                1.0000
             D4 s8             :                2.7000
             D4 s9             :                5.0000
             alphaj            :                2.0000

  Z AO/shell   Hii/eV     exponent
  1     Wed Apr 25 08:07:45 CEST 2018   EN: 2.200 GM2: 0.406  GM3: 0.0800  RAES: 1.40
     1s    -10.707211    1.230000
  6     Wed Apr 25 08:07:45 CEST 2018   EN: 2.550 GM2: 0.538  GM3: 0.1500  RAES: 3.00
     2s    -13.970922    2.096432
     2p    -10.063292    1.800000
  7     Wed Apr 25 08:07:45 CEST 2018   EN: 3.040 GM2: 0.461  GM3:-0.0640  RAES: 1.90
     2s    -16.686243    2.339881
     2p    -12.523956    2.014332
  8     Wed Apr 25 08:07:45 CEST 2018   EN: 3.440 GM2: 0.452  GM3:-0.0517  RAES: 1.80
     2s    -20.229985    2.439742
     2p    -15.503117    2.137023
 16     Tue Apr 24 11:44:34 CEST 2018   EN: 2.580 GM2: 0.340  GM3:-0.0502  RAES: 3.10
     3s    -20.029654    1.981333
     3p    -11.377694    2.025643
     3d     -0.420282    1.702555

           ------------------------------------------------- 
          |        Self-Consistent Charge Iterations        |
           ------------------------------------------------- 

          ...................................................
          :                      SETUP                      :
          :.................................................:
          :  # basis functions                 137          :
          :  # atomic orbitals                 136          :
          :  # shells                           74          :
          :  # electrons                       140          :
          :  max. iterations                   250          :
          :  Hamiltonian                  GFN2-xTB          :
          :  restarted?                      false          :
          :  GBSA solvation                  false          :
          :  PC potential                    false          :
          :  electronic temp.          300.0000000     K    :
          :  accuracy                    1.0000000          :
          :  -> integral cutoff          0.2500000E+02      :
          :  -> integral neglect         0.1000000E-07      :
          :  -> SCF convergence          0.1000000E-05 Eh   :
          :  -> wf. convergence          0.1000000E-03 e    :
          :  Broyden damping             0.4000000          :
          ...................................................

 iter      E             dE          RMSdq      gap      omega  full diag
   1    -78.4640296 -0.784640E+02  0.506E+00    1.82       0.0  T
   2    -78.5187270 -0.546974E-01  0.309E+00    1.54       1.0  T
   3    -78.4973165  0.214106E-01  0.981E-01    1.40       1.0  T
   4    -78.5221922 -0.248758E-01  0.420E-01    1.34       1.0  T
   5    -78.5273599 -0.516770E-02  0.175E-01    1.37       1.0  T
   6    -78.5276627 -0.302805E-03  0.848E-02    1.35       1.0  T
   7    -78.5278306 -0.167911E-03  0.413E-02    1.37       1.0  T
   8    -78.5278334 -0.271793E-05  0.243E-02    1.37       1.0  T
   9    -78.5278417 -0.829567E-05  0.863E-03    1.38       1.7  T
  10    -78.5278448 -0.311771E-05  0.359E-03    1.37       4.2  T
  11    -78.5278448 -0.663229E-07  0.197E-03    1.37       7.7  T
  12    -78.5278449 -0.105974E-06  0.511E-04    1.37      29.5  T
  13    -78.5278449 -0.859814E-09  0.237E-04    1.37      63.6  T

   *** convergence criteria satisfied after 13 iterations ***

         #    Occupation            Energy/Eh            Energy/eV
      -------------------------------------------------------------
         1        2.0000           -0.7735410             -21.0491
       ...           ...                  ...                  ...
        64        2.0000           -0.4248436             -11.5606
        65        2.0000           -0.4228958             -11.5076
        66        2.0000           -0.4197143             -11.4210
        67        2.0000           -0.4161043             -11.3228
        68        2.0000           -0.4158002             -11.3145
        69        2.0000           -0.3957867             -10.7699
        70        2.0000           -0.3510367              -9.5522 (HOMO)
        71                         -0.3005350              -8.1780 (LUMO)
        72                         -0.2789334              -7.5902
        73                         -0.2687654              -7.3135
        74                         -0.2465646              -6.7094
        75                         -0.2394307              -6.5152
       ...                                ...                  ...
       136                          0.9718611              26.4457
      -------------------------------------------------------------
                  HL-Gap            0.0505017 Eh            1.3742 eV
             Fermi-level           -0.3257859 Eh           -8.8651 eV

 SCC (total)                   0 d,  0 h,  0 min,  0.139 sec
 SCC setup                      ...        0 min,  0.001 sec (  0.565%)
 Dispersion                     ...        0 min,  0.001 sec (  1.026%)
 integral evaluation            ...        0 min,  0.064 sec ( 46.114%)
 zeroth order Hamiltonian       ...        0 min,  0.000 sec (  0.342%)
 iterations                     ...        0 min,  0.037 sec ( 26.301%)
 molecular gradient             ...        0 min,  0.035 sec ( 25.457%)
 printout                       ...        0 min,  0.000 sec (  0.160%)

         :::::::::::::::::::::::::::::::::::::::::::::::::::::
         ::                     SUMMARY                     ::
         :::::::::::::::::::::::::::::::::::::::::::::::::::::
         :: total energy             -77.385419786045 Eh    ::
         :: gradient norm              0.145602055051 Eh/a0 ::
         :: HOMO-LUMO gap              1.374221750400 eV    ::
         ::.................................................::
         :: SCC energy               -78.527844948857 Eh    ::
         :: -> isotropic ES            0.090786505888 Eh    ::
         :: -> anisotropic ES         -0.003405168562 Eh    ::
         :: -> anisotropic XC          0.032935374222 Eh    ::
         :: -> dispersion             -0.059976131554 Eh    ::
         :: repulsion energy           1.142255462935 Eh    ::
         :: add. restraining           0.000000000000 Eh    ::
         :::::::::::::::::::::::::::::::::::::::::::::::::::::

           -------------------------------------------------
          |                Property Printout                |
           -------------------------------------------------

    * Orbital Energies and Occupations

         #    Occupation            Energy/Eh            Energy/eV
      -------------------------------------------------------------
         1        2.0000           -0.7735410             -21.0491
       ...           ...                  ...                  ...
        58        2.0000           -0.4461601             -12.1406
        59        2.0000           -0.4422857             -12.0352
        60        2.0000           -0.4407066             -11.9922
        61        2.0000           -0.4375743             -11.9070
        62        2.0000           -0.4368619             -11.8876
        63        2.0000           -0.4301072             -11.7038
        64        2.0000           -0.4248436             -11.5606
        65        2.0000           -0.4228958             -11.5076
        66        2.0000           -0.4197143             -11.4210
        67        2.0000           -0.4161043             -11.3228
        68        2.0000           -0.4158002             -11.3145
        69        2.0000           -0.3957867             -10.7699
        70        2.0000           -0.3510367              -9.5522 (HOMO)
        71                         -0.3005350              -8.1780 (LUMO)
        72                         -0.2789334              -7.5902
        73                         -0.2687654              -7.3135
        74                         -0.2465646              -6.7094
        75                         -0.2394307              -6.5152
        76                         -0.2353504              -6.4042
        77                         -0.2260878              -6.1522
        78                         -0.2087291              -5.6798
        79                         -0.1706417              -4.6434
        80                         -0.1608895              -4.3780
        81                         -0.1169347              -3.1820
       ...                                ...                  ...
       136                          0.9718611              26.4457
      -------------------------------------------------------------
                  HL-Gap            0.0505017 Eh            1.3742 eV
             Fermi-level           -0.3257859 Eh           -8.8651 eV

     #   Z        covCN         q      C6AA      α(0)
     1   8 O      0.859    -0.544    24.787     6.675
     2  16 S      3.964     0.946   108.219    17.509
     3   8 O      0.859    -0.544    24.788     6.675
     4   6 C      2.990    -0.069    29.704     8.940
     5   6 C      2.929    -0.017    28.426     8.744
     6   6 C      2.911    -0.023    28.580     8.766
     7   6 C      2.910    -0.024    28.594     8.768
     8   6 C      2.909    -0.026    28.646     8.776
     9   6 C      3.117     0.006    27.709     8.622
    10   6 C      3.117     0.006    27.709     8.622
    11   6 C      2.911    -0.036    28.907     8.816
    12   6 C      2.899     0.079    26.229     8.397
    13   7 N      2.734    -0.100    23.206     7.155
    14   6 C      2.896     0.042    27.054     8.528
    15   6 C      2.910    -0.056    29.399     8.891
    16   6 C      2.909    -0.038    28.956     8.824
    17   6 C      2.910    -0.039    28.981     8.828
    18   6 C      2.909    -0.052    29.281     8.873
    19   6 C      2.846     0.128    25.188     8.225
    20   8 O      1.703    -0.267    18.423     5.795
    21   6 C      2.846     0.128    25.187     8.225
    22   6 C      2.909    -0.052    29.281     8.873
    23   6 C      2.910    -0.040    28.983     8.828
    24   6 C      2.909    -0.039    28.959     8.824
    25   6 C      2.910    -0.056    29.402     8.891
    26   6 C      2.896     0.042    27.054     8.528
    27   6 C      2.913    -0.034    28.839     8.806
    28   6 C      2.929    -0.018    28.458     8.749
    29   6 C      2.990    -0.072    29.787     8.953
    30   1 H      0.925     0.065     2.136     2.285
    31   1 H      0.925     0.060     2.201     2.320
    32   1 H      0.925     0.057     2.233     2.337
    33   1 H      0.925     0.055     2.254     2.348
    34   1 H      0.925     0.062     2.177     2.308
    35   1 H      0.925     0.031     2.566     2.505
    36   1 H      0.925     0.040     2.453     2.449
    37   1 H      0.925     0.041     2.429     2.437
    38   1 H      0.925     0.054     2.274     2.358
    39   1 H      0.925     0.054     2.274     2.358
    40   1 H      0.925     0.041     2.430     2.438
    41   1 H      0.925     0.039     2.458     2.451
    42   1 H      0.925     0.031     2.572     2.508
    43   1 H      0.925     0.067     2.123     2.279
    44   1 H      0.925     0.069     2.093     2.262

 Mol. C6AA /au·bohr⁶  :      32271.788465
 Mol. C8AA /au·bohr⁸  :     853637.935170
 Mol. α(0) /au        :        288.749761


Wiberg/Mayer (AO) data.
largest (>0.10) Wiberg bond orders for each atom
          total WBO             WBO to atom ...
     1  O   1.910        S    2 1.599    O    3 0.123
     2  S   4.865        O    1 1.599    O    3 1.599    C   29 0.795    C    4 0.794
     3  O   1.910        S    2 1.599    O    1 0.123
     4  C   3.973        C    5 1.432    C    9 1.362    S    2 0.794    C    7 0.102
     5  C   3.986        C    4 1.432    C    6 1.428    H   30 0.966    C    8 0.105
     6  C   3.969        C    7 1.433    C    5 1.428    H   31 0.969
     7  C   3.981        C    8 1.444    C    6 1.433    H   32 0.970    C    4 0.102
     8  C   3.978        C    7 1.444    C    9 1.386    H   33 0.966    C    5 0.105
     9  C   3.987        C    8 1.386    C    4 1.362    C   10 1.058
    10  C   3.986        C   11 1.389    C   29 1.360    C    9 1.058
    11  C   3.974        C   12 1.404    C   10 1.389    H   34 0.964    C   28 0.103
    12  C   3.968        C   11 1.404    C   27 1.394    N   13 1.008
    13  N   3.428        C   26 1.049    C   14 1.049    C   12 1.008
    14  C   3.961        C   15 1.383    C   19 1.319    N   13 1.049
    15  C   3.980        C   16 1.428    C   14 1.383    H   35 0.969
    16  C   3.984        C   17 1.442    C   15 1.428    H   36 0.971
    17  C   3.980        C   16 1.442    C   18 1.419    H   37 0.971
    18  C   3.979        C   17 1.419    C   19 1.400    H   38 0.968
    19  C   3.928        C   18 1.400    C   14 1.319    O   20 1.014
    20  O   2.283        C   21 1.015    C   19 1.014
    21  C   3.928        C   22 1.400    C   26 1.319    O   20 1.015
    22  C   3.979        C   23 1.418    C   21 1.400    H   39 0.968
    23  C   3.980        C   24 1.442    C   22 1.418    H   40 0.971
    24  C   3.984        C   23 1.442    C   25 1.428    H   41 0.971
    25  C   3.980        C   24 1.428    C   26 1.383    H   42 0.969
    26  C   3.961        C   25 1.383    C   21 1.319    N   13 1.049
    27  C   3.965        C   28 1.431    C   12 1.394    H   43 0.967
    28  C   3.985        C   27 1.431    C   29 1.430    H   44 0.965    C   11 0.103
    29  C   3.973        C   28 1.430    C   10 1.360    S    2 0.795
    30  H   0.995        C    5 0.966
    31  H   0.995        C    6 0.969
    32  H   0.996        C    7 0.970
    33  H   0.996        C    8 0.966
    34  H   0.995        C   11 0.964
    35  H   0.999        C   15 0.969
    36  H   0.998        C   16 0.971
    37  H   0.997        C   17 0.971
    38  H   0.996        C   18 0.968
    39  H   0.996        C   22 0.968
    40  H   0.997        C   23 0.971
    41  H   0.998        C   24 0.971
    42  H   0.999        C   25 0.969
    43  H   0.994        C   27 0.967
    44  H   0.994        C   28 0.965

molecular dipole:
                 x           y           z       tot (Debye)
 q only:       -0.905      -1.174       1.880
   full:       -0.802      -1.166       1.885       5.991
molecular quadrupole (traceless):
                xx          xy          yy          xz          yz          zz
 q only:       -6.299     -20.292       2.650      31.622       5.511       3.649
  q+dip:       -2.733     -19.456       0.835      31.123       3.919       1.898
   full:       -6.723     -21.038       2.604      32.873       5.309       4.118


           -------------------------------------------------
          | TOTAL ENERGY              -77.385419786045 Eh   |
          | GRADIENT NORM               0.145602055051 Eh/α |
          | HOMO-LUMO GAP               1.374221750400 eV   |
           -------------------------------------------------

------------------------------------------------------------------------
 * finished run on 2026/01/19 at 14:36:36.121     
------------------------------------------------------------------------
 total:
 * wall-time:     0 d,  0 h,  0 min,  0.868 sec
 *  cpu-time:     0 d,  0 h,  0 min,  0.228 sec
 * ratio c/w:     0.263 speedup
 SCF:
 * wall-time:     0 d,  0 h,  0 min,  0.140 sec
 *  cpu-time:     0 d,  0 h,  0 min,  0.140 sec
 * ratio c/w:     0.999 speedup


-------------------------   --------------------
FINAL SINGLE POINT ENERGY         0.000000000000
-------------------------   --------------------

------------------------------------------------------------------------------
                         ORCA GEOMETRY RELAXATION STEP
------------------------------------------------------------------------------

Reading the OPT-File                    .... done
Getting information on internals        .... done
Copying old internal coords+grads       .... done
Making the new internal coordinates     .... (new redundants).... done
Validating the new internal coordinates .... (new redundants).... done
Calculating the B-matrix                .... done
Calculating the G,G- and P matrices     .... done
Transforming gradient to internals      .... done
Projecting the internal gradient        .... done
Number of atoms                         ....  44
Number of internal coordinates          .... 259
Current Energy                          ....     0.000000000 Eh
Current gradient norm                   ....     0.145602055 Eh/bohr
Maximum allowed component of the step   ....  0.300
Current trust radius                    ....  0.300
Evaluating the initial hessian          ....  (Almloef) done
Projecting the Hessian                  .... done
Forming the augmented Hessian           .... done
Diagonalizing the augmented Hessian     .... done
Last element of RFO vector              ....  0.975439559
Lowest eigenvalues of augmented Hessian:
 -0.029149735  0.010661470  0.015863496  0.016319256  0.017575139
Length of the computed step             ....  0.225813339
The final length of the internal step   ....  0.225813339
Converting the step to cartesian space:
 Initial RMS(Int)=    0.0140313582
Transforming coordinates:
 Iter   0:  RMS(Cart)=    0.0730561344 RMS(Int)=    1.1042643844
 Iter   1:  RMS(Cart)=    0.0004146343 RMS(Int)=    0.3904103369
 Iter   2:  RMS(Cart)=    0.0000098311 RMS(Int)=    0.0000033822
 Iter   3:  RMS(Cart)=    0.0000001787 RMS(Int)=    0.0000000658
 Iter   4:  RMS(Cart)=    0.0000000044 RMS(Int)=    0.0000000018
done
Storing new coordinates                 .... done

                                .--------------------.
          ----------------------|Geometry convergence|-------------------------
          Item                value                   Tolerance       Converged
          ---------------------------------------------------------------------
          RMS gradient        0.0084889622            0.0001000000      NO
          MAX gradient        0.0568414166            0.0003000000      NO
          RMS step            0.0140313582            0.0020000000      NO
          MAX step            0.0839883495            0.0040000000      NO
          ........................................................
          Max(Bonds)      0.0444      Max(Angles)    2.49
          Max(Dihed)        1.01      Max(Improp)    0.00
          ---------------------------------------------------------------------

The optimization has not yet converged - more geometry cycles are needed


    ---------------------------------------------------------------------------
                         Redundant Internal Coordinates
                            (Angstroem and degrees)

        Definition                    Value    dE/dq     Step     New-Value
    ----------------------------------------------------------------------------
     1. B(S   1,O   0)                1.5023  0.056841 -0.0293    1.4731   
     2. B(O   2,S   1)                1.5023  0.056831 -0.0293    1.4731   
     3. B(C   3,S   1)                1.7456 -0.014787  0.0168    1.7624   
     4. B(C   4,C   3)                1.3944  0.016008 -0.0130    1.3814   
     5. B(C   5,C   4)                1.4028  0.014580 -0.0125    1.3903   
     6. B(C   6,C   5)                1.4068  0.017325 -0.0152    1.3916   
     7. B(C   7,C   6)                1.4038  0.016484 -0.0142    1.3896   
     8. B(C   8,C   7)                1.3990  0.011231 -0.0092    1.3898   
     9. B(C   8,C   3)                1.3905  0.000617 -0.0004    1.3900   
    10. B(C   9,C   8)                1.4702 -0.000599 -0.0003    1.4699   
    11. B(C  10,C   9)                1.3981  0.011378 -0.0093    1.3887   
    12. B(C  11,C  10)                1.4066  0.015400 -0.0134    1.3932   
    13. B(N  12,C  11)                1.4366  0.021449 -0.0227    1.4140   
    14. B(C  13,N  12)                1.4484  0.040371 -0.0443    1.4041   
    15. B(C  14,C  13)                1.4109  0.024576 -0.0215    1.3894   
    16. B(C  15,C  14)                1.3979  0.012814 -0.0107    1.3872   
    17. B(C  16,C  15)                1.3962  0.013420 -0.0110    1.3851   
    18. B(C  17,C  16)                1.3962  0.010881 -0.0089    1.3873   
    19. B(C  18,C  17)                1.3987  0.019587 -0.0163    1.3824   
    20. B(C  18,C  13)                1.4093  0.012339 -0.0108    1.3985   
    21. B(O  19,C  18)                1.3969  0.021581 -0.0200    1.3770   
    22. B(C  20,O  19)                1.3969  0.021666 -0.0200    1.3769   
    23. B(C  21,C  20)                1.3987  0.019579 -0.0163    1.3824   
    24. B(C  22,C  21)                1.3962  0.010869 -0.0089    1.3873   
    25. B(C  23,C  22)                1.3962  0.013432 -0.0110    1.3851   
    26. B(C  24,C  23)                1.3979  0.012787 -0.0106    1.3873   
    27. B(C  25,C  24)                1.4110  0.024560 -0.0215    1.3895   
    28. B(C  25,C  20)                1.4093  0.012298 -0.0107    1.3985   
    29. B(C  25,N  12)                1.4485  0.040460 -0.0444    1.4040   
    30. B(C  26,C  11)                1.4098  0.016340 -0.0145    1.3953   
    31. B(C  27,C  26)                1.4020  0.014941 -0.0128    1.3892   
    32. B(C  28,C  27)                1.3938  0.014550 -0.0118    1.3820   
    33. B(C  28,C   9)                1.3901 -0.000186  0.0002    1.3903   
    34. B(C  28,S   1)                1.7456 -0.014876  0.0169    1.7625   
    35. B(H  29,C   4)                1.0822  0.003273 -0.0043    1.0779   
    36. B(H  30,C   5)                1.0822  0.002845 -0.0038    1.0785   
    37. B(H  31,C   6)                1.0823  0.002777 -0.0037    1.0786   
    38. B(H  32,C   7)                1.0816  0.002660 -0.0035    1.0781   
    39. B(H  33,C  10)                1.0819  0.002584 -0.0034    1.0785   
    40. B(H  34,C  14)                1.0816  0.001903 -0.0025    1.0791   
    41. B(H  35,C  15)                1.0824  0.003016 -0.0040    1.0784   
    42. B(H  36,C  16)                1.0823  0.003053 -0.0040    1.0783   
    43. B(H  37,C  17)                1.0826  0.003329 -0.0044    1.0781   
    44. B(H  38,C  21)                1.0826  0.003333 -0.0044    1.0781   
    45. B(H  39,C  22)                1.0823  0.003050 -0.0040    1.0783   
    46. B(H  40,C  23)                1.0824  0.003000 -0.0040    1.0784   
    47. B(H  41,C  24)                1.0817  0.001893 -0.0025    1.0791   
    48. B(H  42,C  26)                1.0825  0.002750 -0.0036    1.0789   
    49. B(H  43,C  27)                1.0821  0.003346 -0.0044    1.0777   
    50. A(O   0,S   1,O   2)          112.72 -0.008451    1.39    114.11   
    51. A(O   2,S   1,C  28)          112.67  0.003943   -0.60    112.07   
    52. A(O   0,S   1,C   3)          112.67  0.003573   -0.50    112.17   
    53. A(C   3,S   1,C  28)           91.84 -0.005110    0.52     92.35   
    54. A(O   0,S   1,C  28)          112.67  0.003937   -0.59    112.07   
    55. A(O   2,S   1,C   3)          112.67  0.003563   -0.50    112.17   
    56. A(S   1,C   3,C   4)          126.52 -0.006576    0.70    127.23   
    57. A(S   1,C   3,C   8)          112.16  0.009005   -1.02    111.15   
    58. A(C   4,C   3,C   8)          121.31 -0.002429    0.31    121.63   
    59. A(C   3,C   4,H  29)          120.72  0.001042   -0.18    120.54   
    60. A(C   3,C   4,C   5)          118.65  0.001330   -0.16    118.49   
    61. A(C   5,C   4,H  29)          120.63 -0.002372    0.34    120.97   
    62. A(C   6,C   5,H  30)          119.85  0.000656   -0.06    119.80   
    63. A(C   4,C   5,H  30)          119.83  0.000365   -0.01    119.81   
    64. A(C   4,C   5,C   6)          120.32 -0.001021    0.07    120.39   
    65. A(C   5,C   6,H  31)          119.80  0.001563   -0.17    119.64   
    66. A(C   5,C   6,C   7)          120.40 -0.003190    0.35    120.75   
    67. A(C   7,C   6,H  31)          119.80  0.001627   -0.18    119.62   
    68. A(C   8,C   7,H  32)          121.16  0.001147   -0.16    121.00   
    69. A(C   6,C   7,C   8)          118.81 -0.000968    0.13    118.94   
    70. A(C   6,C   7,H  32)          120.03 -0.000178    0.04    120.07   
    71. A(C   7,C   8,C   9)          127.59  0.000295   -0.07    127.52   
    72. A(C   3,C   8,C   9)          111.90 -0.006574    0.77    112.67   
    73. A(C   3,C   8,C   7)          120.51  0.006278   -0.70    119.81   
    74. A(C   8,C   9,C  10)          127.54  0.000639   -0.12    127.42   
    75. A(C  10,C   9,C  28)          120.54  0.006161   -0.68    119.86   
    76. A(C   8,C   9,C  28)          111.92 -0.006800    0.80    112.73   
    77. A(C  11,C  10,H  33)          120.14  0.000793   -0.12    120.02   
    78. A(C   9,C  10,H  33)          120.97 -0.000809    0.12    121.09   
    79. A(C   9,C  10,C  11)          118.89  0.000016    0.01    118.90   
    80. A(N  12,C  11,C  26)          119.95  0.002174   -0.25    119.70   
    81. A(C  10,C  11,C  26)          120.15 -0.004777    0.55    120.70   
    82. A(C  10,C  11,N  12)          119.90  0.002603   -0.30    119.60   
    83. A(C  11,N  12,C  25)          120.32  0.000296   -0.05    120.26   
    84. A(C  13,N  12,C  25)          119.36 -0.000559    0.10    119.46   
    85. A(C  11,N  12,C  13)          120.32  0.000263   -0.05    120.27   
    86. A(C  14,C  13,C  18)          118.86 -0.003619    0.43    119.29   
    87. A(N  12,C  13,C  18)          119.15 -0.000969    0.16    119.31   
    88. A(N  12,C  13,C  14)          121.99  0.004589   -0.59    121.39   
    89. A(C  13,C  14,H  34)          121.24  0.002961   -0.45    120.78   
    90. A(C  13,C  14,C  15)          120.36  0.001741   -0.24    120.12   
    91. A(C  15,C  14,H  34)          118.40 -0.004702    0.70    119.10   
    92. A(C  14,C  15,C  16)          120.19 -0.000290    0.06    120.25   
    93. A(C  16,C  15,H  35)          119.88 -0.001018    0.15    120.03   
    94. A(C  14,C  15,H  35)          119.93  0.001308   -0.20    119.72   
    95. A(C  15,C  16,C  17)          120.03  0.000392   -0.02    120.01   
    96. A(C  17,C  16,H  36)          119.99  0.000701   -0.12    119.86   
    97. A(C  15,C  16,H  36)          119.99 -0.001094    0.14    120.13   
    98. A(C  16,C  17,C  18)          120.18  0.001866   -0.23    119.95   
    99. A(C  18,C  17,H  37)          120.05  0.002069   -0.33    119.72   
   100. A(C  16,C  17,H  37)          119.77 -0.003935    0.56    120.34   
   101. A(C  17,C  18,O  19)          119.43  0.008201   -1.04    118.39   
   102. A(C  13,C  18,O  19)          120.19 -0.008111    1.03    121.23   
   103. A(C  13,C  18,C  17)          120.38 -0.000090    0.00    120.38   
   104. A(C  18,O  19,C  20)          121.95  0.018739   -2.49    119.46   
   105. A(O  19,C  20,C  21)          119.43  0.008207   -1.04    118.39   
   106. A(C  21,C  20,C  25)          120.38 -0.000089    0.00    120.38   
   107. A(O  19,C  20,C  25)          120.19 -0.008118    1.03    121.23   
   108. A(C  20,C  21,C  22)          120.18  0.001854   -0.23    119.95   
   109. A(C  22,C  21,H  38)          119.77 -0.003928    0.56    120.33   
   110. A(C  20,C  21,H  38)          120.05  0.002074   -0.34    119.72   
   111. A(C  21,C  22,C  23)          120.03  0.000394   -0.02    120.01   
   112. A(C  23,C  22,H  39)          119.99 -0.001092    0.14    120.13   
   113. A(C  21,C  22,H  39)          119.99  0.000698   -0.12    119.86   
   114. A(C  24,C  23,H  40)          119.93  0.001301   -0.20    119.72   
   115. A(C  22,C  23,H  40)          119.88 -0.001013    0.15    120.03   
   116. A(C  22,C  23,C  24)          120.19 -0.000288    0.06    120.25   
   117. A(C  25,C  24,H  41)          121.24  0.002969   -0.46    120.78   
   118. A(C  23,C  24,H  41)          118.40 -0.004696    0.70    119.09   
   119. A(C  23,C  24,C  25)          120.36  0.001727   -0.24    120.12   
   120. A(C  20,C  25,C  24)          118.86 -0.003598    0.43    119.29   
   121. A(N  12,C  25,C  24)          121.99  0.004579   -0.59    121.40   
   122. A(N  12,C  25,C  20)          119.15 -0.000981    0.16    119.31   
   123. A(C  11,C  26,C  27)          120.39  0.000253   -0.09    120.29   
   124. A(C  27,C  26,H  42)          119.63 -0.001802    0.30    119.93   
   125. A(C  11,C  26,H  42)          119.98  0.001549   -0.21    119.78   
   126. A(C  26,C  27,C  28)          118.69  0.000952   -0.11    118.58   
   127. A(C  28,C  27,H  43)          120.71  0.000877   -0.15    120.56   
   128. A(C  26,C  27,H  43)          120.61 -0.001828    0.26    120.86   
   129. A(C   9,C  28,C  27)          121.34 -0.002606    0.33    121.68   
   130. A(S   1,C  28,C  27)          126.49 -0.006874    0.74    127.22   
   131. A(S   1,C  28,C   9)          112.17  0.009480   -1.07    111.10   
   132. D(C   4,C   3,S   1,O   0)     64.43 -0.002761    0.53     64.96   
   133. D(C   8,C   3,S   1,C  28)     -0.01  0.000004   -0.00     -0.01   
   134. D(C   4,C   3,S   1,C  28)    179.98  0.000002   -0.00    179.98   
   135. D(C   8,C   3,S   1,O   0)   -115.55 -0.002758    0.53   -115.02   
   136. D(C   8,C   3,S   1,O   2)    115.54  0.002771   -0.54    115.01   
   137. D(C   4,C   3,S   1,O   2)    -64.47  0.002768   -0.53    -65.01   
   138. D(C   5,C   4,C   3,S   1)   -179.98  0.000003   -0.00   -179.99   
   139. D(H  29,C   4,C   3,C   8)    180.00 -0.000000   -0.00    180.00   
   140. D(H  29,C   4,C   3,S   1)      0.01  0.000001   -0.00      0.01   
   141. D(C   5,C   4,C   3,C   8)      0.00  0.000002   -0.00     -0.00   
   142. D(H  30,C   5,C   4,H  29)      0.00 -0.000001    0.00      0.00   
   143. D(H  30,C   5,C   4,C   3)    180.00 -0.000002    0.00    180.00   
   144. D(C   6,C   5,C   4,H  29)   -179.99 -0.000000    0.00   -179.99   
   145. D(C   6,C   5,C   4,C   3)      0.00 -0.000002    0.00      0.01   
   146. D(C   7,C   6,C   5,H  30)   -180.00  0.000002   -0.00   -180.00   
   147. D(H  31,C   6,C   5,H  30)     -0.00  0.000001   -0.00     -0.00   
   148. D(H  31,C   6,C   5,C   4)    180.00  0.000000   -0.00    179.99   
   149. D(C   7,C   6,C   5,C   4)     -0.00  0.000001   -0.00     -0.00   
   150. D(H  32,C   7,C   6,H  31)     -0.00  0.000003   -0.00     -0.01   
   151. D(H  32,C   7,C   6,C   5)    179.99  0.000002   -0.00    179.99   
   152. D(C   8,C   7,C   6,H  31)    180.00  0.000001   -0.00    180.00   
   153. D(C   8,C   7,C   6,C   5)     -0.00 -0.000000   -0.00     -0.00   
   154. D(C   9,C   8,C   7,H  32)     -0.01  0.000003   -0.01     -0.02   
   155. D(C   3,C   8,C   7,H  32)   -179.99 -0.000001    0.00   -179.99   
   156. D(C   9,C   8,C   7,C   6)    179.99  0.000005   -0.01    179.98   
   157. D(C   7,C   8,C   3,C   4)     -0.01 -0.000001    0.00     -0.00   
   158. D(C   9,C   8,C   3,S   1)     -0.00 -0.000009    0.01      0.01   
   159. D(C   9,C   8,C   3,C   4)   -179.99 -0.000006    0.01   -179.98   
   160. D(C   7,C   8,C   3,S   1)    179.98 -0.000004    0.00    179.98   
   161. D(C   3,C   8,C   7,C   6)      0.01  0.000001    0.00      0.01   
   162. D(C  10,C   9,C   8,C   3)    179.99 -0.000030    0.03    180.02   
   163. D(C  28,C   9,C   8,C   7)   -179.97  0.000003   -0.00   -179.97   
   164. D(C  28,C   9,C   8,C   3)      0.01  0.000009   -0.01     -0.00   
   165. D(C  10,C   9,C   8,C   7)      0.01 -0.000036    0.04      0.05   
   166. D(H  33,C  10,C   9,C  28)    180.00  0.000010   -0.01    179.99   
   167. D(C  11,C  10,C   9,C  28)      0.04 -0.000061    0.07      0.11   
   168. D(C  11,C  10,C   9,C   8)   -179.94 -0.000016    0.02   -179.92   
   169. D(H  33,C  10,C   9,C   8)      0.02  0.000054   -0.06     -0.04   
   170. D(C  26,C  11,C  10,H  33)   -179.98 -0.000039    0.04   -179.94   
   171. D(C  26,C  11,C  10,C   9)     -0.03  0.000029   -0.03     -0.06   
   172. D(N  12,C  11,C  10,H  33)     -0.01 -0.000044    0.05      0.04   
   173. D(N  12,C  11,C  10,C   9)    179.94  0.000025   -0.02    179.92   
   174. D(C  25,N  12,C  11,C  26)     96.44 -0.000781    0.96     97.40   
   175. D(C  25,N  12,C  11,C  10)    -83.53 -0.000774    0.95    -82.58   
   176. D(C  13,N  12,C  11,C  26)    -83.73 -0.000821    1.01    -82.72   
   177. D(C  13,N  12,C  11,C  10)     96.30 -0.000814    1.00     97.30   
   178. D(C  18,C  13,N  12,C  25)     -0.17 -0.000029    0.04     -0.13   
   179. D(C  18,C  13,N  12,C  11)   -180.00  0.000008   -0.02   -180.01   
   180. D(C  14,C  13,N  12,C  25)    179.46 -0.000051    0.05    179.51   
   181. D(C  14,C  13,N  12,C  11)     -0.37 -0.000014    0.00     -0.37   
   182. D(H  34,C  14,C  13,C  18)    179.57 -0.000073    0.08    179.65   
   183. D(C  15,C  14,C  13,C  18)     -0.33 -0.000018    0.02     -0.31   
   184. D(C  15,C  14,C  13,N  12)   -179.95 -0.000005    0.00   -179.95   
   185. D(H  34,C  14,C  13,N  12)     -0.05 -0.000060    0.06      0.01   
   186. D(H  35,C  15,C  14,H  34)      0.15  0.000028   -0.03      0.12   
   187. D(H  35,C  15,C  14,C  13)   -179.94 -0.000018    0.02   -179.92   
   188. D(C  16,C  15,C  14,H  34)   -179.80  0.000059   -0.06   -179.86   
   189. D(C  16,C  15,C  14,C  13)      0.11  0.000013   -0.01      0.10   
   190. D(H  36,C  16,C  15,H  35)      0.04 -0.000007    0.01      0.04   
   191. D(C  17,C  16,C  15,H  35)   -179.85  0.000016   -0.02   -179.87   
   192. D(H  36,C  16,C  15,C  14)    179.99 -0.000037    0.04    180.03   
   193. D(C  17,C  16,C  15,C  14)      0.10 -0.000014    0.01      0.11   
   194. D(C  18,C  17,C  16,C  15)     -0.07  0.000024   -0.03     -0.10   
   195. D(H  37,C  17,C  16,H  36)     -0.05 -0.000000   -0.00     -0.05   
   196. D(H  37,C  17,C  16,C  15)    179.84 -0.000025    0.02    179.86   
   197. D(C  18,C  17,C  16,H  36)   -179.96  0.000048   -0.05   -180.01   
   198. D(O  19,C  18,C  17,H  37)     -0.18  0.000006   -0.01     -0.20   
   199. D(O  19,C  18,C  17,C  16)    179.72 -0.000048    0.04    179.76   
   200. D(C  13,C  18,C  17,H  37)    179.93  0.000009   -0.01    179.92   
   201. D(C  13,C  18,C  17,C  16)     -0.16 -0.000045    0.04     -0.12   
   202. D(O  19,C  18,C  13,C  14)   -179.53  0.000006   -0.03   -179.56   
   203. D(O  19,C  18,C  13,N  12)      0.11  0.000016   -0.02      0.09   
   204. D(C  17,C  18,C  13,C  14)      0.36  0.000022   -0.04      0.32   
   205. D(C  17,C  18,C  13,N  12)    179.99  0.000032   -0.02    179.97   
   206. D(C  20,O  19,C  18,C  17)   -179.85  0.000010   -0.01   -179.86   
   207. D(C  20,O  19,C  18,C  13)      0.03  0.000016   -0.02      0.02   
   208. D(C  25,C  20,O  19,C  18)     -0.12 -0.000031    0.03     -0.09   
   209. D(C  21,C  20,O  19,C  18)    179.96 -0.000045    0.04    180.00   
   210. D(H  38,C  21,C  20,C  25)    179.94 -0.000021    0.02    179.96   
   211. D(H  38,C  21,C  20,O  19)     -0.14 -0.000014    0.01     -0.13   
   212. D(C  22,C  21,C  20,C  25)     -0.12 -0.000020    0.02     -0.10   
   213. D(C  22,C  21,C  20,O  19)    179.80 -0.000013    0.01    179.81   
   214. D(H  39,C  22,C  21,H  38)     -0.04 -0.000003    0.00     -0.04   
   215. D(H  39,C  22,C  21,C  20)   -179.98 -0.000008    0.01   -179.97   
   216. D(C  23,C  22,C  21,H  38)    179.87  0.000016   -0.02    179.85   
   217. D(C  23,C  22,C  21,C  20)     -0.07  0.000012   -0.02     -0.09   
   218. D(H  40,C  23,C  22,H  39)      0.04 -0.000019    0.02      0.06   
   219. D(H  40,C  23,C  22,C  21)   -179.87 -0.000040    0.04   -179.83   
   220. D(C  24,C  23,C  22,H  39)    179.99  0.000001   -0.00    179.98   
   221. D(C  24,C  23,C  22,C  21)      0.08 -0.000020    0.02      0.10   
   222. D(H  41,C  24,C  23,H  40)      0.14 -0.000006    0.01      0.15   
   223. D(H  41,C  24,C  23,C  22)   -179.81 -0.000025    0.03   -179.78   
   224. D(C  25,C  24,C  23,H  40)   -179.94  0.000045   -0.05   -179.99   
   225. D(C  25,C  24,C  23,C  22)      0.11  0.000026   -0.02      0.08   
   226. D(C  20,C  25,C  24,H  41)    179.62  0.000026   -0.03    179.59   
   227. D(C  20,C  25,C  24,C  23)     -0.30 -0.000020    0.03     -0.27   
   228. D(N  12,C  25,C  24,H  41)     -0.04  0.000037   -0.04     -0.08   
   229. D(N  12,C  25,C  24,C  23)   -179.96 -0.000009    0.01   -179.94   
   230. D(C  24,C  25,C  20,C  21)      0.30  0.000008   -0.02      0.28   
   231. D(C  24,C  25,C  20,O  19)   -179.62 -0.000013   -0.01   -179.63   
   232. D(N  12,C  25,C  20,C  21)    179.97  0.000017   -0.01    179.96   
   233. D(N  12,C  25,C  20,O  19)      0.05 -0.000004   -0.00      0.05   
   234. D(C  24,C  25,N  12,C  13)    179.75 -0.000008   -0.01    179.74   
   235. D(C  24,C  25,N  12,C  11)     -0.42 -0.000046    0.04     -0.38   
   236. D(C  20,C  25,N  12,C  13)      0.09  0.000011   -0.02      0.06   
   237. D(C  20,C  25,N  12,C  11)    179.92 -0.000027    0.03    179.94   
   238. D(H  42,C  26,C  11,N  12)      0.03 -0.000033    0.04      0.07   
   239. D(H  42,C  26,C  11,C  10)   -180.00 -0.000038    0.04   -179.96   
   240. D(C  27,C  26,C  11,N  12)   -179.98  0.000045   -0.05   -180.03   
   241. D(C  27,C  26,C  11,C  10)     -0.01  0.000040   -0.04     -0.05   
   242. D(H  43,C  27,C  26,H  42)     -0.00  0.000080   -0.08     -0.09   
   243. D(H  43,C  27,C  26,C  11)   -179.99  0.000002   -0.00   -179.99   
   244. D(C  28,C  27,C  26,H  42)   -179.98  0.000005   -0.01   -179.99   
   245. D(C  28,C  27,C  26,C  11)      0.03 -0.000073    0.08      0.10   
   246. D(S   1,C  28,C  27,H  43)     -0.02 -0.000033    0.04      0.02   
   247. D(S   1,C  28,C  27,C  26)    179.96  0.000042   -0.04    179.92   
   248. D(C  27,C  28,C   9,C  10)     -0.02  0.000028   -0.03     -0.05   
   249. D(C  27,C  28,C   9,C   8)    179.96 -0.000009    0.01    179.97   
   250. D(S   1,C  28,C   9,C  10)   -180.00  0.000030   -0.03   -180.03   
   251. D(S   1,C  28,C   9,C   8)     -0.02 -0.000007    0.01     -0.01   
   252. D(C  27,C  28,S   1,C   3)   -179.96  0.000002   -0.01   -179.97   
   253. D(C  27,C  28,S   1,O   2)     64.49 -0.002433    0.44     64.93   
   254. D(C  27,C  28,S   1,O   0)    -64.41  0.002446   -0.46    -64.87   
   255. D(C   9,C  28,S   1,C   3)      0.01  0.000002   -0.00      0.01   
   256. D(C   9,C  28,S   1,O   2)   -115.54 -0.002433    0.44   -115.09   
   257. D(C   9,C  28,C  27,C  26)     -0.01  0.000039   -0.04     -0.05   
   258. D(C   9,C  28,S   1,O   0)    115.56  0.002447   -0.46    115.11   
   259. D(C   9,C  28,C  27,H  43)   -179.99 -0.000036    0.04   -179.96   
    ----------------------------------------------------------------------------

         *************************************************************
         *                GEOMETRY OPTIMIZATION CYCLE   2            *
         *************************************************************
      -----------------------------------------------------------      
     |                   =====================                   |     
     |                           x T B                           |     
     |                   =====================                   |     
     |                         S. Grimme                         |     
     |          Mulliken Center for Theoretical Chemistry        |     
     |                    University of Bonn                     |     
      -----------------------------------------------------------      

   * xtb version 6.2.3 (830e466) compiled by 'ehlert@majestix' on 2020-03-16

   xtb is free software: you can redistribute it and/or modify it under
   the terms of the GNU Lesser General Public License as published by
   the Free Software Foundation, either version 3 of the License, or
   (at your option) any later version.
   
   xtb is distributed in the hope that it will be useful,
   but WITHOUT ANY WARRANTY; without even the implied warranty of
   MERCHANTABILITY or FITNESS FOR A PARTICULAR PURPOSE.  See the
   GNU Lesser General Public License for more details.
   
   Cite this work as:
   * S. Grimme, C. Bannwarth, P. Shushkov, J. Chem. Theory Comput., 2017,
     13, 1989-2009. DOI: 10.1021/acs.jctc.7b00118
   * C. Bannwarth, S. Ehlert and S. Grimme., J. Chem. Theory Comput., 2019,
     15, 1652-1671. DOI: 10.1021/acs.jctc.8b01176
   * P. Pracht, E. Caldeweyher, S. Ehlert, S. Grimme, ChemRxiv, 2019, preprint.
     DOI: 10.26434/chemrxiv.8326202.v1
   
   for DFT-D4:
   * E. Caldeweyher, C. Bannwarth and S. Grimme, J. Chem. Phys., 2017,
     147, 034112. DOI: 10.1063/1.4993215
   * E. Caldeweyher, S. Ehlert, A. Hansen, H. Neugebauer, S. Spicher,
     C. Bannwarth and S. Grimme, J. Chem. Phys., 2019, 150, 154122.
     DOI: 10.1063/1.5090222
   
   for sTDA-xTB:
   * S. Grimme and C. Bannwarth, J. Chem. Phys., 2016, 145, 054103.
     DOI: 10.1063/1.4959605
   
   in the mass-spec context:
   * V. Asgeirsson, C. Bauer and S. Grimme, Chem. Sci., 2017, 8, 4879.
     DOI: 10.1039/c7sc00601b
   
   for metadynamics refer to:
   * S. Grimme, J. Chem. Theory Comput., 2019, 155, 2847-2862
     DOI: 10.1021/acs.jctc.9b00143
   
   with help from (in alphabetical order)
   C. Bannwarth, F. Bohle, G. Brandenburg, E. Caldeweyher, M. Checinski,
   S. Dohm, S. Ehlert, S. Ehrlich, F. März, H. Neugebauer, J. Pisarek,
   P. Pracht, P. Shushkov, and S. Spicher.
   
 * started run on 2026/01/19 at 14:36:37.774     

           -------------------------------------------------
          |                Calculation Setup                |
           -------------------------------------------------

          program call               : /appl/orca_4.2.1/orca_4_2_1_linux_x86-64_openmpi314/xtb pre_opt_XTB.xyz --grad -c 0 -u 0 -P 1 --namespace pre_opt
          hostname                   : cnode13
          calculation namespace      : pre_opt
          coordinate file            : pre_opt_XTB.xyz
          omp threads                :                     1
          number of atoms            :                    44
          number of electrons        :                   140
          charge                     :                     0
          spin                       :                   0.0
          first test random number   :      0.04961628476967

########################################################################
[WARNING] Please study the warnings concerning your input carefully
-2- prog_main: XTBPATH is not set, using XTBHOME instead
-1- prog_main: XTBHOME is not set, using HOME instead
########################################################################
           ------------------------------------------------- 
          |                 G F N 2 - x T B                 |
          | Geometry, Frequencies, Noncovalent interactions |
          |            JCTC 2019 parametrisation            |
           ------------------------------------------------- 
             k(s)              :                1.8500
             k(p)              :                2.2300
             k(d)              :                2.2300
             k(f)              :                2.0000
             kEN (H0ij)        :               -2.0000
             D4 a1             :                0.5200
             D4 a2             :                5.0000
             D4 s6             :                1.0000
             D4 s8             :                2.7000
             D4 s9             :                5.0000
             alphaj            :                2.0000

  Z AO/shell   Hii/eV     exponent
  1     Wed Apr 25 08:07:45 CEST 2018   EN: 2.200 GM2: 0.406  GM3: 0.0800  RAES: 1.40
     1s    -10.707211    1.230000
  6     Wed Apr 25 08:07:45 CEST 2018   EN: 2.550 GM2: 0.538  GM3: 0.1500  RAES: 3.00
     2s    -13.970922    2.096432
     2p    -10.063292    1.800000
  7     Wed Apr 25 08:07:45 CEST 2018   EN: 3.040 GM2: 0.461  GM3:-0.0640  RAES: 1.90
     2s    -16.686243    2.339881
     2p    -12.523956    2.014332
  8     Wed Apr 25 08:07:45 CEST 2018   EN: 3.440 GM2: 0.452  GM3:-0.0517  RAES: 1.80
     2s    -20.229985    2.439742
     2p    -15.503117    2.137023
 16     Tue Apr 24 11:44:34 CEST 2018   EN: 2.580 GM2: 0.340  GM3:-0.0502  RAES: 3.10
     3s    -20.029654    1.981333
     3p    -11.377694    2.025643
     3d     -0.420282    1.702555

           ------------------------------------------------- 
          |        Self-Consistent Charge Iterations        |
           ------------------------------------------------- 

          ...................................................
          :                      SETUP                      :
          :.................................................:
          :  # basis functions                 137          :
          :  # atomic orbitals                 136          :
          :  # shells                           74          :
          :  # electrons                       140          :
          :  max. iterations                   250          :
          :  Hamiltonian                  GFN2-xTB          :
          :  restarted?                      false          :
          :  GBSA solvation                  false          :
          :  PC potential                    false          :
          :  electronic temp.          300.0000000     K    :
          :  accuracy                    1.0000000          :
          :  -> integral cutoff          0.2500000E+02      :
          :  -> integral neglect         0.1000000E-07      :
          :  -> SCF convergence          0.1000000E-05 Eh   :
          :  -> wf. convergence          0.1000000E-03 e    :
          :  Broyden damping             0.4000000          :
          ...................................................

 iter      E             dE          RMSdq      gap      omega  full diag
   1    -78.5700254 -0.785700E+02  0.495E+00    1.78       0.0  T
   2    -78.6236281 -0.536028E-01  0.305E+00    1.60       1.0  T
   3    -78.5998277  0.238004E-01  0.969E-01    1.29       1.0  T
   4    -78.6276769 -0.278492E-01  0.423E-01    1.41       1.0  T
   5    -78.6330071 -0.533023E-02  0.164E-01    1.36       1.0  T
   6    -78.6332203 -0.213167E-03  0.835E-02    1.38       1.0  T
   7    -78.6333658 -0.145514E-03  0.434E-02    1.37       1.0  T
   8    -78.6333773 -0.115591E-04  0.236E-02    1.38       1.0  T
   9    -78.6333837 -0.635516E-05  0.101E-02    1.38       1.5  T
  10    -78.6333870 -0.329229E-05  0.353E-03    1.38       4.3  T
  11    -78.6333870 -0.499542E-07  0.194E-03    1.38       7.8  T
  12    -78.6333871 -0.939594E-07  0.508E-04    1.38      29.7  T
  13    -78.6333871 -0.146466E-08  0.227E-04    1.38      66.5  T

   *** convergence criteria satisfied after 13 iterations ***

[...]
      -----------------------------------------------------------      

   * xtb version 6.2.3 (830e466) compiled by 'ehlert@majestix' on 2020-03-16

   xtb is free software: you can redistribute it and/or modify it under
   the terms of the GNU Lesser General Public License as published by
   the Free Software Foundation, either version 3 of the License, or
   (at your option) any later version.
   
   xtb is distributed in the hope that it will be useful,
   but WITHOUT ANY WARRANTY; without even the implied warranty of
   MERCHANTABILITY or FITNESS FOR A PARTICULAR PURPOSE.  See the
   GNU Lesser General Public License for more details.
   
   Cite this work as:
   * S. Grimme, C. Bannwarth, P. Shushkov, J. Chem. Theory Comput., 2017,
     13, 1989-2009. DOI: 10.1021/acs.jctc.7b00118
   * C. Bannwarth, S. Ehlert and S. Grimme., J. Chem. Theory Comput., 2019,
     15, 1652-1671. DOI: 10.1021/acs.jctc.8b01176
   * P. Pracht, E. Caldeweyher, S. Ehlert, S. Grimme, ChemRxiv, 2019, preprint.
     DOI: 10.26434/chemrxiv.8326202.v1
   
   for DFT-D4:
   * E. Caldeweyher, C. Bannwarth and S. Grimme, J. Chem. Phys., 2017,
     147, 034112. DOI: 10.1063/1.4993215
   * E. Caldeweyher, S. Ehlert, A. Hansen, H. Neugebauer, S. Spicher,
     C. Bannwarth and S. Grimme, J. Chem. Phys., 2019, 150, 154122.
     DOI: 10.1063/1.5090222
   
   for sTDA-xTB:
   * S. Grimme and C. Bannwarth, J. Chem. Phys., 2016, 145, 054103.
     DOI: 10.1063/1.4959605
   
   in the mass-spec context:
   * V. Asgeirsson, C. Bauer and S. Grimme, Chem. Sci., 2017, 8, 4879.
     DOI: 10.1039/c7sc00601b
   
   for metadynamics refer to:
   * S. Grimme, J. Chem. Theory Comput., 2019, 155, 2847-2862
     DOI: 10.1021/acs.jctc.9b00143
   
   with help from (in alphabetical order)
   C. Bannwarth, F. Bohle, G. Brandenburg, E. Caldeweyher, M. Checinski,
   S. Dohm, S. Ehlert, S. Ehrlich, F. März, H. Neugebauer, J. Pisarek,
   P. Pracht, P. Shushkov, and S. Spicher.
   
 * started run on 2026/01/19 at 14:37:04.734     

           -------------------------------------------------
          |                Calculation Setup                |
           -------------------------------------------------

          program call               : /appl/orca_4.2.1/orca_4_2_1_linux_x86-64_openmpi314/xtb pre_opt_XTB.xyz --grad -c 0 -u 0 -P 1 --namespace pre_opt
          hostname                   : cnode13
          calculation namespace      : pre_opt
          coordinate file            : pre_opt_XTB.xyz
          omp threads                :                     1
          number of atoms            :                    44
          number of electrons        :                   140
          charge                     :                     0
          spin                       :                   0.0
          first test random number   :      0.99317601994609

########################################################################
[WARNING] Please study the warnings concerning your input carefully
-2- prog_main: XTBPATH is not set, using XTBHOME instead
-1- prog_main: XTBHOME is not set, using HOME instead
########################################################################
           ------------------------------------------------- 
          |                 G F N 2 - x T B                 |
          | Geometry, Frequencies, Noncovalent interactions |
          |            JCTC 2019 parametrisation            |
           ------------------------------------------------- 
             k(s)              :                1.8500
             k(p)              :                2.2300
             k(d)              :                2.2300
             k(f)              :                2.0000
             kEN (H0ij)        :               -2.0000
             D4 a1             :                0.5200
             D4 a2             :                5.0000
             D4 s6             :                1.0000
             D4 s8             :                2.7000
             D4 s9             :                5.0000
             alphaj            :                2.0000

  Z AO/shell   Hii/eV     exponent
  1     Wed Apr 25 08:07:45 CEST 2018   EN: 2.200 GM2: 0.406  GM3: 0.0800  RAES: 1.40
     1s    -10.707211    1.230000
  6     Wed Apr 25 08:07:45 CEST 2018   EN: 2.550 GM2: 0.538  GM3: 0.1500  RAES: 3.00
     2s    -13.970922    2.096432
     2p    -10.063292    1.800000
  7     Wed Apr 25 08:07:45 CEST 2018   EN: 3.040 GM2: 0.461  GM3:-0.0640  RAES: 1.90
     2s    -16.686243    2.339881
     2p    -12.523956    2.014332
  8     Wed Apr 25 08:07:45 CEST 2018   EN: 3.440 GM2: 0.452  GM3:-0.0517  RAES: 1.80
     2s    -20.229985    2.439742
     2p    -15.503117    2.137023
 16     Tue Apr 24 11:44:34 CEST 2018   EN: 2.580 GM2: 0.340  GM3:-0.0502  RAES: 3.10
     3s    -20.029654    1.981333
     3p    -11.377694    2.025643
     3d     -0.420282    1.702555

           ------------------------------------------------- 
          |        Self-Consistent Charge Iterations        |
           ------------------------------------------------- 

          ...................................................
          :                      SETUP                      :
          :.................................................:
          :  # basis functions                 137          :
          :  # atomic orbitals                 136          :
          :  # shells                           74          :
          :  # electrons                       140          :
          :  max. iterations                   250          :
          :  Hamiltonian                  GFN2-xTB          :
          :  restarted?                      false          :
          :  GBSA solvation                  false          :
          :  PC potential                    false          :
          :  electronic temp.          300.0000000     K    :
          :  accuracy                    1.0000000          :
          :  -> integral cutoff          0.2500000E+02      :
          :  -> integral neglect         0.1000000E-07      :
          :  -> SCF convergence          0.1000000E-05 Eh   :
          :  -> wf. convergence          0.1000000E-03 e    :
          :  Broyden damping             0.4000000          :
          ...................................................

 iter      E             dE          RMSdq      gap      omega  full diag
   1    -78.5982924 -0.785983E+02  0.493E+00    1.81       0.0  T
   2    -78.6461356 -0.478432E-01  0.302E+00    1.83       1.0  T
   3    -78.6199988  0.261369E-01  0.948E-01    1.44       1.0  T
   4    -78.6498645 -0.298658E-01  0.421E-01    1.71       1.0  T
   5    -78.6553967 -0.553224E-02  0.154E-01    1.61       1.0  T
   6    -78.6555675 -0.170754E-03  0.878E-02    1.64       1.0  T
   7    -78.6557233 -0.155789E-03  0.465E-02    1.63       1.0  T
   8    -78.6557465 -0.231784E-04  0.253E-02    1.64       1.0  T
   9    -78.6557518 -0.529885E-05  0.104E-02    1.64       1.4  T
  10    -78.6557549 -0.317919E-05  0.356E-03    1.64       4.2  T
  11    -78.6557550 -0.689741E-07  0.190E-03    1.64       7.9  T
  12    -78.6557551 -0.711464E-07  0.492E-04    1.64      30.7  T
  13    -78.6557551 -0.150064E-08  0.227E-04    1.64      66.4  T

   *** convergence criteria satisfied after 13 iterations ***

         #    Occupation            Energy/Eh            Energy/eV
      -------------------------------------------------------------
         1        2.0000           -0.7741739             -21.0663
       ...           ...                  ...                  ...
        64        2.0000           -0.4312153             -11.7340
        65        2.0000           -0.4221508             -11.4873
        66        2.0000           -0.4198802             -11.4255
        67        2.0000           -0.4169194             -11.3450
        68        2.0000           -0.4090877             -11.1318
        69        2.0000           -0.3968151             -10.7979
        70        2.0000           -0.3512863              -9.5590 (HOMO)
        71                         -0.2910636              -7.9202 (LUMO)
        72                         -0.2667013              -7.2573
        73                         -0.2578130              -7.0154
        74                         -0.2447696              -6.6605
        75                         -0.2361468              -6.4259
       ...                                ...                  ...
       136                          1.2216421              33.2426
      -------------------------------------------------------------
                  HL-Gap            0.0602228 Eh            1.6387 eV
             Fermi-level           -0.3211749 Eh           -8.7396 eV

 SCC (total)                   0 d,  0 h,  0 min,  0.119 sec
 SCC setup                      ...        0 min,  0.001 sec (  0.487%)
 Dispersion                     ...        0 min,  0.001 sec (  0.783%)
 integral evaluation            ...        0 min,  0.046 sec ( 38.752%)
 zeroth order Hamiltonian       ...        0 min,  0.000 sec (  0.374%)
 iterations                     ...        0 min,  0.035 sec ( 29.201%)
 molecular gradient             ...        0 min,  0.036 sec ( 30.179%)
 printout                       ...        0 min,  0.000 sec (  0.193%)

         :::::::::::::::::::::::::::::::::::::::::::::::::::::
         ::                     SUMMARY                     ::
         :::::::::::::::::::::::::::::::::::::::::::::::::::::
         :: total energy             -77.410654700587 Eh    ::
         :: gradient norm              0.000266505976 Eh/a0 ::
         :: HOMO-LUMO gap              1.638744446330 eV    ::
         ::.................................................::
         :: SCC energy               -78.655755090046 Eh    ::
         :: -> isotropic ES            0.078063049019 Eh    ::
         :: -> anisotropic ES         -0.003109883890 Eh    ::
         :: -> anisotropic XC          0.029513275006 Eh    ::
         :: -> dispersion             -0.061431420763 Eh    ::
         :: repulsion energy           1.244997193135 Eh    ::
         :: add. restraining           0.000000000000 Eh    ::
         :::::::::::::::::::::::::::::::::::::::::::::::::::::

           -------------------------------------------------
          |                Property Printout                |
           -------------------------------------------------

    * Orbital Energies and Occupations

         #    Occupation            Energy/Eh            Energy/eV
      -------------------------------------------------------------
         1        2.0000           -0.7741739             -21.0663
       ...           ...                  ...                  ...
        58        2.0000           -0.4451027             -12.1119
        59        2.0000           -0.4416361             -12.0175
        60        2.0000           -0.4408527             -11.9962
        61        2.0000           -0.4375028             -11.9051
        62        2.0000           -0.4360017             -11.8642
        63        2.0000           -0.4341753             -11.8145
        64        2.0000           -0.4312153             -11.7340
        65        2.0000           -0.4221508             -11.4873
        66        2.0000           -0.4198802             -11.4255
        67        2.0000           -0.4169194             -11.3450
        68        2.0000           -0.4090877             -11.1318
        69        2.0000           -0.3968151             -10.7979
        70        2.0000           -0.3512863              -9.5590 (HOMO)
        71                         -0.2910636              -7.9202 (LUMO)
        72                         -0.2667013              -7.2573
        73                         -0.2578130              -7.0154
        74                         -0.2447696              -6.6605
        75                         -0.2361468              -6.4259
        76                         -0.2270857              -6.1793
        77                         -0.2196337              -5.9765
        78                         -0.2021600              -5.5011
        79                         -0.1522576              -4.1431
        80                         -0.1388167              -3.7774
        81                         -0.1089987              -2.9660
       ...                                ...                  ...
       136                          1.2216421              33.2426
      -------------------------------------------------------------
                  HL-Gap            0.0602228 Eh            1.6387 eV
             Fermi-level           -0.3211749 Eh           -8.7396 eV

     #   Z        covCN         q      C6AA      α(0)
     1   8 O      0.860    -0.532    24.496     6.636
     2  16 S      3.929     0.964   107.684    17.465
     3   8 O      0.860    -0.532    24.497     6.636
     4   6 C      2.991    -0.075    29.869     8.965
     5   6 C      2.926    -0.016    28.409     8.741
     6   6 C      2.924    -0.023    28.571     8.766
     7   6 C      2.919    -0.024    28.609     8.771
     8   6 C      2.919    -0.026    28.648     8.777
     9   6 C      3.109     0.004    27.792     8.637
    10   6 C      3.109     0.004    27.795     8.638
    11   6 C      2.922    -0.041    29.018     8.834
    12   6 C      2.920     0.073    26.378     8.422
    13   7 N      2.751    -0.069    22.576     7.057
    14   6 C      2.921     0.041    27.087     8.535
    15   6 C      2.924    -0.060    29.493     8.906
    16   6 C      2.919    -0.038    28.939     8.822
    17   6 C      2.919    -0.039    28.964     8.825
    18   6 C      2.920    -0.055    29.375     8.888
    19   6 C      2.884     0.126    25.244     8.237
    20   8 O      1.709    -0.252    18.175     5.756
    21   6 C      2.884     0.126    25.239     8.236
    22   6 C      2.920    -0.056    29.379     8.889
    23   6 C      2.919    -0.039    28.971     8.826
    24   6 C      2.919    -0.038    28.953     8.824
    25   6 C      2.924    -0.061    29.507     8.908
    26   6 C      2.921     0.041    27.084     8.534
    27   6 C      2.925    -0.038    28.951     8.824
    28   6 C      2.925    -0.017    28.441     8.746
    29   6 C      2.990    -0.082    30.053     8.993
    30   1 H      0.926     0.059     2.210     2.325
    31   1 H      0.926     0.056     2.250     2.346
    32   1 H      0.926     0.053     2.284     2.363
    33   1 H      0.926     0.051     2.302     2.372
    34   1 H      0.926     0.057     2.231     2.336
    35   1 H      0.926     0.035     2.514     2.480
    36   1 H      0.926     0.040     2.453     2.449
    37   1 H      0.926     0.041     2.430     2.438
    38   1 H      0.926     0.053     2.280     2.361
    39   1 H      0.926     0.053     2.279     2.361
    40   1 H      0.926     0.041     2.435     2.440
    41   1 H      0.926     0.038     2.471     2.458
    42   1 H      0.926     0.034     2.533     2.489
    43   1 H      0.926     0.061     2.186     2.312
    44   1 H      0.926     0.062     2.177     2.307

 Mol. C6AA /au·bohr⁶  :      32301.172183
 Mol. C8AA /au·bohr⁸  :     854164.874582
 Mol. α(0) /au        :        288.929835


Wiberg/Mayer (AO) data.
largest (>0.10) Wiberg bond orders for each atom
          total WBO             WBO to atom ...
     1  O   1.972        S    2 1.666    O    3 0.117
     2  S   4.937        O    1 1.666    O    3 1.665    C   29 0.766    C    4 0.763
     3  O   1.972        S    2 1.665    O    1 0.117
     4  C   3.975        C    5 1.454    C    9 1.356    S    2 0.763    C    7 0.102
     5  C   3.988        C    4 1.454    C    6 1.415    H   30 0.966    C    8 0.104
     6  C   3.981        C    7 1.441    C    5 1.415    H   31 0.969    C    9 0.102
     7  C   3.990        C    8 1.443    C    6 1.441    H   32 0.969    C    4 0.102
     8  C   3.990        C    7 1.443    C    9 1.390    H   33 0.966    C    5 0.104
     9  C   3.988        C    8 1.390    C    4 1.356    C   10 1.063    C    6 0.102
    10  C   3.987        C   11 1.400    C   29 1.348    C    9 1.063
    11  C   3.984        C   10 1.400    C   12 1.383    H   34 0.963
    12  C   3.974        C   11 1.383    C   27 1.381    N   13 1.039
    13  N   3.497        C   26 1.067    C   14 1.066    C   12 1.039
    14  C   3.965        C   15 1.389    C   19 1.302    N   13 1.066
    15  C   3.980        C   16 1.420    C   14 1.389    H   35 0.964
    16  C   3.985        C   17 1.451    C   15 1.420    H   36 0.971
    17  C   3.977        C   16 1.451    C   18 1.411    H   37 0.971
    18  C   3.979        C   17 1.411    C   19 1.410    H   38 0.967
    19  C   3.929        C   18 1.410    C   14 1.302    O   20 1.022
    20  O   2.301        C   21 1.023    C   19 1.022
    21  C   3.929        C   22 1.410    C   26 1.301    O   20 1.023
    22  C   3.979        C   23 1.410    C   21 1.410    H   39 0.967
    23  C   3.977        C   24 1.451    C   22 1.410    H   40 0.971
    24  C   3.985        C   23 1.451    C   25 1.419    H   41 0.971
    25  C   3.980        C   24 1.419    C   26 1.389    H   42 0.964
    26  C   3.965        C   25 1.389    C   21 1.301    N   13 1.067
    27  C   3.975        C   28 1.427    C   12 1.381    H   43 0.966
    28  C   3.986        C   29 1.444    C   27 1.427    H   44 0.965
    29  C   3.967        C   28 1.444    C   10 1.348    S    2 0.766
    30  H   0.996        C    5 0.966
    31  H   0.995        C    6 0.969
    32  H   0.996        C    7 0.969
    33  H   0.996        C    8 0.966
    34  H   0.996        C   11 0.963
    35  H   0.999        C   15 0.964
    36  H   0.998        C   16 0.971
    37  H   0.998        C   17 0.971
    38  H   0.996        C   18 0.967
    39  H   0.996        C   22 0.967
    40  H   0.998        C   23 0.971
    41  H   0.998        C   24 0.971
    42  H   0.999        C   25 0.964
    43  H   0.995        C   27 0.966
    44  H   0.995        C   28 0.965

molecular dipole:
                 x           y           z       tot (Debye)
 q only:       -0.874      -1.349       1.370
   full:       -0.745      -1.304       1.328       5.097
molecular quadrupole (traceless):
                xx          xy          yy          xz          yz          zz
 q only:       -4.308     -24.519       2.778      22.833       2.561       1.530
  q+dip:        0.285     -23.681       2.198      22.037      -1.117      -2.482
   full:       -3.925     -24.646       2.123      23.441       1.469       1.802


           -------------------------------------------------
          | TOTAL ENERGY              -77.410654700587 Eh   |
          | GRADIENT NORM               0.000266505976 Eh/α |
          | HOMO-LUMO GAP               1.638744446330 eV   |
           -------------------------------------------------

------------------------------------------------------------------------
 * finished run on 2026/01/19 at 14:37:05.894     
------------------------------------------------------------------------
 total:
 * wall-time:     0 d,  0 h,  0 min,  1.159 sec
 *  cpu-time:     0 d,  0 h,  0 min,  0.218 sec
 * ratio c/w:     0.188 speedup
 SCF:
 * wall-time:     0 d,  0 h,  0 min,  0.119 sec
 *  cpu-time:     0 d,  0 h,  0 min,  0.119 sec
 * ratio c/w:     1.000 speedup


-------------------------   --------------------
FINAL SINGLE POINT ENERGY         0.000000000000
-------------------------   --------------------

                                *** OPTIMIZATION RUN DONE ***

Timings for individual modules:

Sum of individual times         ...       25.968 sec (=   0.433 min)
Geometry relaxation             ...        9.063 sec (=   0.151 min)  34.9 %
XTB module                      ...       16.905 sec (=   0.282 min)  65.1 %
                             ****ORCA TERMINATED NORMALLY****
TOTAL RUN TIME: 0 days 0 hours 0 minutes 35 seconds 890 msec
