 Entering Gaussian System, Link 0=g16
 Initial command:
 /appl/Gaussian16/AVX_revB01/g16/l1.exe "/home/junhkim/WORK/Review_DD/TADF-Design/data/td_dft/results/mol_337/Gau-1890576.inp" -scrdir="/home/junhkim/WORK/Review_DD/TADF-Design/data/td_dft/results/mol_337/"
 Entering Link 1 = /appl/Gaussian16/AVX_revB01/g16/l1.exe PID=   1890578.
  
 Copyright (c) 1988-2017, Gaussian, Inc.  All Rights Reserved.
  
 This is part of the Gaussian(R) 16 program.  It is based on
 the Gaussian(R) 09 system (copyright 2009, Gaussian, Inc.),
 the Gaussian(R) 03 system (copyright 2003, Gaussian, Inc.),
 the Gaussian(R) 98 system (copyright 1998, Gaussian, Inc.),
 the Gaussian(R) 94 system (copyright 1995, Gaussian, Inc.),
 the Gaussian 92(TM) system (copyright 1992, Gaussian, Inc.),
 the Gaussian 90(TM) system (copyright 1990, Gaussian, Inc.),
 the Gaussian 88(TM) system (copyright 1988, Gaussian, Inc.),
 the Gaussian 86(TM) system (copyright 1986, Carnegie Mellon
 University), and the Gaussian 82(TM) system (copyright 1983,
 Carnegie Mellon University). Gaussian is a federally registered
 trademark of Gaussian, Inc.
  
 This software contains proprietary and confidential information,
 including trade secrets, belonging to Gaussian, Inc.
  
 This software is provided under written license and may be
 used, copied, transmitted, or stored only in accord with that
 written license.
  
 The following legend is applicable only to US Government
 contracts under FAR:
  
                    RESTRICTED RIGHTS LEGEND
  
 Use, reproduction and disclosure by the US Government is
 subject to restrictions as set forth in subparagraphs (a)
 and (c) of the Commercial Computer Software - Restricted
 Rights clause in FAR 52.227-19.
  
 Gaussian, Inc.
 340 Quinnipiac St., Bldg. 40, Wallingford CT 06492
  
  
 ---------------------------------------------------------------
 Warning -- This program may not be used in any manner that
 competes with the business of Gaussian, Inc. or will provide
 assistance to any competitor of Gaussian, Inc.  The licensee
 of this program is prohibited from giving any competitor of
 Gaussian, Inc. access to this program.  By using this program,
 the user acknowledges that Gaussian, Inc. is engaged in the
 business of creating and licensing software in the field of
 computational chemistry and represents and warrants to the
 licensee that it is not a competitor of Gaussian, Inc. and that
 it will not use this program in any manner prohibited above.
 ---------------------------------------------------------------
  

 Cite this work as:
 Gaussian 16, Revision B.01,
 M. J. Frisch, G. W. Trucks, H. B. Schlegel, G. E. Scuseria, 
 M. A. Robb, J. R. Cheeseman, G. Scalmani, V. Barone, 
 G. A. Petersson, H. Nakatsuji, X. Li, M. Caricato, A. V. Marenich, 
 J. Bloino, B. G. Janesko, R. Gomperts, B. Mennucci, H. P. Hratchian, 
 J. V. Ortiz, A. F. Izmaylov, J. L. Sonnenberg, D. Williams-Young, 
 F. Ding, F. Lipparini, F. Egidi, J. Goings, B. Peng, A. Petrone, 
 T. Henderson, D. Ranasinghe, V. G. Zakrzewski, J. Gao, N. Rega, 
 G. Zheng, W. Liang, M. Hada, M. Ehara, K. Toyota, R. Fukuda, 
 J. Hasegawa, M. Ishida, T. Nakajima, Y. Honda, O. Kitao, H. Nakai, 
 T. Vreven, K. Throssell, J. A. Montgomery, Jr., J. E. Peralta, 
 F. Ogliaro, M. J. Bearpark, J. J. Heyd, E. N. Brothers, K. N. Kudin, 
 V. N. Staroverov, T. A. Keith, R. Kobayashi, J. Normand, 
 K. Raghavachari, A. P. Rendell, J. C. Burant, S. S. Iyengar, 
 J. Tomasi, M. Cossi, J. M. Millam, M. Klene, C. Adamo, R. Cammi, 
 J. W. Ochterski, R. L. Martin, K. Morokuma, O. Farkas, 
 J. B. Foresman, and D. J. Fox, Gaussian, Inc., Wallingford CT, 2016.
 
 ******************************************
 Gaussian 16:  ES64L-G16RevB.01 20-Dec-2017
                19-Jan-2026 
 ******************************************
 %OldChk=/home/junhkim/WORK/Review_DD/TADF-Design/data/td_dft/results/mol_337/opt
 .chk
 %nprocshared=16
 Will use up to   16 processors via shared memory.
 %mem=60GB
 Copying data from "/home/junhkim/WORK/Review_DD/TADF-Design/data/td_dft/results/mol_337/opt.chk" to current chk file "/home/junhkim/WORK/Review_DD/TADF-Design/data/td_dft/results/mol_337/Gau-1890578.chk"
 IOpt=  2 FromEx=T IUOpen= 4 IOptOp= 5 NList=   0 IFRang= 0 IUIn= 4 IUOut= 2.
 -----------------------------------------------------------------
 # b3lyp/6-31g* TD=(Nstates=1,50-50) Geom=Check Guess=Read SCF=XQC
 -----------------------------------------------------------------
 1/29=2,38=1,172=1/1;
 2/12=2,40=1/2;
 3/5=1,6=6,7=1,11=9,14=-4,25=1,30=1,74=-5,116=-2/1,2,3,8;
 4/5=1/1;
 5/5=2,8=3,13=1,38=6/2,8;
 8/6=1,10=2,108=1/1;
 9/41=1,42=1,48=2,70=2/14;
 6/7=2,8=2,9=2,10=2/1;
 99/5=1,9=1/99;
 ------------------
 TD-DFT calculation
 ------------------
 Structure from the checkpoint file:  "/home/junhkim/WORK/Review_DD/TADF-Design/data/td_dft/results/mol_337/Gau-1890578.chk"
 Charge =  0 Multiplicity = 1
 Redundant internal coordinates found in file.  (old form).
 O,0,4.5293140413,0.4633528625,-2.645994594
 S,0,3.9969800343,1.2825622532,-1.547696474
 O,0,4.2445872301,2.7315062171,-1.5464652694
 C,0,4.4173343675,0.561906214,0.0477661122
 C,0,5.6903584746,0.4603408552,0.5869106556
 C,0,5.8207517197,-0.1338444556,1.8464204423
 C,0,4.6922588997,-0.6044548891,2.5250434519
 C,0,3.4168241244,-0.4932670171,1.9654232944
 C,0,3.2713291739,0.0977209842,0.7085988685
 C,0,2.0282557387,0.3151895391,-0.0618912566
 C,0,0.7217633764,-0.0220420752,0.2954863679
 C,0,-0.3301218455,0.2709972295,-0.5813890251
 N,0,-1.6670492975,-0.0751916706,-0.2134120503
 C,0,-2.4800147441,0.854744921,0.4700103133
 C,0,-2.0367005172,2.1325426595,0.8266647454
 C,0,-2.8782954155,3.017341586,1.5087270822
 C,0,-4.1746134918,2.6391638943,1.8422982906
 C,0,-4.6296568256,1.364808766,1.4894897794
 C,0,-3.7937597391,0.4866359977,0.8151756759
 O,0,-4.3101494647,-0.7573552639,0.5094206444
 C,0,-3.5274558968,-1.6357774943,-0.2140576965
 C,0,-4.1005412653,-2.8521736366,-0.5554738096
 C,0,-3.3669713582,-3.7975782125,-1.2790792101
 C,0,-2.0598575091,-3.5053740521,-1.6543106688
 C,0,-1.4833013427,-2.2778584922,-1.3120405494
 C,0,-2.2065083803,-1.3250516664,-0.587040998
 C,0,-0.0844760624,0.8978282699,-1.8108791638
 C,0,1.2194020393,1.2403593449,-2.179882826
 C,0,2.2454919149,0.9412509453,-1.2971564382
 H,0,6.5567178025,0.8305698611,0.0474846908
 H,0,6.8037677378,-0.2292163607,2.2976964209
 H,0,4.80680803,-1.0639252156,3.5025465998
 H,0,2.5509513736,-0.8640849043,2.5061814655
 H,0,0.4996415796,-0.507969114,1.2403854575
 H,0,-1.0285887817,2.4385450162,0.5706282136
 H,0,-2.5063015735,4.0028082775,1.7730892673
 H,0,-4.8337345674,3.3207485656,2.3710475358
 H,0,-5.6339509563,1.0310307862,1.7309886579
 H,0,-5.1230256337,-3.041004669,-0.2436971492
 H,0,-3.8213312059,-4.7479226758,-1.5417132383
 H,0,-1.4738021279,-4.2258688329,-2.2171940032
 H,0,-0.464075317,-2.0603647805,-1.6109659338
 H,0,-0.9198535471,1.112311872,-2.469634645
 H,0,1.4216022079,1.72605856,-3.1294880337
 Recover connectivity data from disk.
                           ----------------------------
                           !    Current Parameters    !
                           ! (Angstroms and Degrees)  !
 --------------------------                            --------------------------
 ! Name  Definition              Value                                          !
 --------------------------------------------------------------------------------
 ! R1    R(1,2)                  1.4699                                         !
 ! R2    R(2,3)                  1.4699                                         !
 ! R3    R(2,4)                  1.8004                                         !
 ! R4    R(2,29)                 1.8019                                         !
 ! R5    R(4,5)                  1.3862                                         !
 ! R6    R(4,9)                  1.402                                          !
 ! R7    R(5,6)                  1.3987                                         !
 ! R8    R(5,30)                 1.0856                                         !
 ! R9    R(6,7)                  1.3984                                         !
 ! R10   R(6,31)                 1.0858                                         !
 ! R11   R(7,8)                  1.3972                                         !
 ! R12   R(7,32)                 1.0862                                         !
 ! R13   R(8,9)                  1.3964                                         !
 ! R14   R(8,33)                 1.0861                                         !
 ! R15   R(9,10)                 1.4786                                         !
 ! R16   R(10,11)                1.3958                                         !
 ! R17   R(10,29)                1.4018                                         !
 ! R18   R(11,12)                1.4004                                         !
 ! R19   R(11,34)                1.0855                                         !
 ! R20   R(12,13)                1.4292                                         !
 ! R21   R(12,27)                1.4018                                         !
 ! R22   R(13,14)                1.4117                                         !
 ! R23   R(13,26)                1.4117                                         !
 ! R24   R(14,15)                1.3987                                         !
 ! R25   R(14,19)                1.4073                                         !
 ! R26   R(15,16)                1.3987                                         !
 ! R27   R(15,35)                1.0842                                         !
 ! R28   R(16,17)                1.3909                                         !
 ! R29   R(16,36)                1.086                                          !
 ! R30   R(17,18)                1.3984                                         !
 ! R31   R(17,37)                1.0856                                         !
 ! R32   R(18,19)                1.3873                                         !
 ! R33   R(18,38)                1.0855                                         !
 ! R34   R(19,20)                1.3812                                         !
 ! R35   R(20,21)                1.3812                                         !
 ! R36   R(21,22)                1.3873                                         !
 ! R37   R(21,26)                1.4073                                         !
 ! R38   R(22,23)                1.3984                                         !
 ! R39   R(22,39)                1.0855                                         !
 ! R40   R(23,24)                1.3909                                         !
 ! R41   R(23,40)                1.0856                                         !
 ! R42   R(24,25)                1.3987                                         !
 ! R43   R(24,41)                1.086                                          !
 ! R44   R(25,26)                1.3987                                         !
 ! R45   R(25,42)                1.0842                                         !
 ! R46   R(27,28)                1.3977                                         !
 ! R47   R(27,43)                1.0853                                         !
 ! R48   R(28,29)                1.3862                                         !
 ! R49   R(28,44)                1.0856                                         !
 ! A1    A(1,2,3)              119.2726                                         !
 ! A2    A(1,2,4)              110.7619                                         !
 ! A3    A(1,2,29)             110.5076                                         !
 ! A4    A(3,2,4)              110.7615                                         !
 ! A5    A(3,2,29)             110.5069                                         !
 ! A6    A(4,2,29)              91.5994                                         !
 ! A7    A(2,4,5)              126.0431                                         !
 ! A8    A(2,4,9)              111.0622                                         !
 ! A9    A(5,4,9)              122.8947                                         !
 ! A10   A(4,5,6)              117.8371                                         !
 ! A11   A(4,5,30)             120.9718                                         !
 ! A12   A(6,5,30)             121.191                                          !
 ! A13   A(5,6,7)              120.3128                                         !
 ! A14   A(5,6,31)             119.7318                                         !
 ! A15   A(7,6,31)             119.9554                                         !
 ! A16   A(6,7,8)              121.0307                                         !
 ! A17   A(6,7,32)             119.6035                                         !
 ! A18   A(8,7,32)             119.3658                                         !
 ! A19   A(7,8,9)              119.292                                          !
 ! A20   A(7,8,33)             120.0754                                         !
 ! A21   A(9,8,33)             120.6326                                         !
 ! A22   A(4,9,8)              118.6327                                         !
 ! A23   A(4,9,10)             113.1355                                         !
 ! A24   A(8,9,10)             128.2318                                         !
 ! A25   A(9,10,11)            128.1672                                         !
 ! A26   A(9,10,29)            113.241                                          !
 ! A27   A(11,10,29)           118.5918                                         !
 ! A28   A(10,11,12)           119.483                                          !
 ! A29   A(10,11,34)           121.5035                                         !
 ! A30   A(12,11,34)           119.0135                                         !
 ! A31   A(11,12,13)           119.3876                                         !
 ! A32   A(11,12,27)           120.7398                                         !
 ! A33   A(13,12,27)           119.8727                                         !
 ! A34   A(12,13,14)           120.2514                                         !
 ! A35   A(12,13,26)           120.2511                                         !
 ! A36   A(14,13,26)           119.4271                                         !
 ! A37   A(13,14,15)           122.8687                                         !
 ! A38   A(13,14,19)           118.9491                                         !
 ! A39   A(15,14,19)           118.1819                                         !
 ! A40   A(14,15,16)           120.7655                                         !
 ! A41   A(14,15,35)           119.4928                                         !
 ! A42   A(16,15,35)           119.7417                                         !
 ! A43   A(15,16,17)           120.379                                          !
 ! A44   A(15,16,36)           119.119                                          !
 ! A45   A(17,16,36)           120.502                                          !
 ! A46   A(16,17,18)           119.3754                                         !
 ! A47   A(16,17,37)           120.793                                          !
 ! A48   A(18,17,37)           119.8316                                         !
 ! A49   A(17,18,19)           120.2266                                         !
 ! A50   A(17,18,38)           121.6774                                         !
 ! A51   A(19,18,38)           118.0959                                         !
 ! A52   A(14,19,18)           121.0715                                         !
 ! A53   A(14,19,20)           122.0261                                         !
 ! A54   A(18,19,20)           116.9016                                         !
 ! A55   A(19,20,21)           118.4838                                         !
 ! A56   A(20,21,22)           116.9017                                         !
 ! A57   A(20,21,26)           122.0262                                         !
 ! A58   A(22,21,26)           121.0714                                         !
 ! A59   A(21,22,23)           120.2266                                         !
 ! A60   A(21,22,39)           118.0959                                         !
 ! A61   A(23,22,39)           121.6774                                         !
 ! A62   A(22,23,24)           119.3754                                         !
 ! A63   A(22,23,40)           119.8316                                         !
 ! A64   A(24,23,40)           120.793                                          !
 ! A65   A(23,24,25)           120.3789                                         !
 ! A66   A(23,24,41)           120.502                                          !
 ! A67   A(25,24,41)           119.119                                          !
 ! A68   A(24,25,26)           120.7655                                         !
 ! A69   A(24,25,42)           119.7417                                         !
 ! A70   A(26,25,42)           119.4928                                         !
 ! A71   A(13,26,21)           118.949                                          !
 ! A72   A(13,26,25)           122.8686                                         !
 ! A73   A(21,26,25)           118.182                                          !
 ! A74   A(12,27,28)           120.3067                                         !
 ! A75   A(12,27,43)           119.0706                                         !
 ! A76   A(28,27,43)           120.6227                                         !
 ! A77   A(27,28,29)           118.0038                                         !
 ! A78   A(27,28,44)           120.9525                                         !
 ! A79   A(29,28,44)           121.0437                                         !
 ! A80   A(2,29,10)            110.962                                          !
 ! A81   A(2,29,28)            126.1631                                         !
 ! A82   A(10,29,28)           122.8749                                         !
 ! D1    D(1,2,4,5)             67.3316                                         !
 ! D2    D(1,2,4,9)           -112.6687                                         !
 ! D3    D(3,2,4,5)            -67.333                                          !
 ! D4    D(3,2,4,9)            112.6667                                         !
 ! D5    D(29,2,4,5)           179.9997                                         !
 ! D6    D(29,2,4,9)            -0.0007                                         !
 ! D7    D(1,2,29,10)          112.8968                                         !
 ! D8    D(1,2,29,28)          -67.1037                                         !
 ! D9    D(3,2,29,10)         -112.8949                                         !
 ! D10   D(3,2,29,28)           67.1045                                         !
 ! D11   D(4,2,29,10)            0.0007                                         !
 ! D12   D(4,2,29,28)         -179.9999                                         !
 ! D13   D(2,4,5,6)            179.9996                                         !
 ! D14   D(2,4,5,30)            -0.0006                                         !
 ! D15   D(9,4,5,6)              0.0                                            !
 ! D16   D(9,4,5,30)           179.9998                                         !
 ! D17   D(2,4,9,8)           -179.9996                                         !
 ! D18   D(2,4,9,10)             0.0004                                         !
 ! D19   D(5,4,9,8)              0.0                                            !
 ! D20   D(5,4,9,10)          -179.9999                                         !
 ! D21   D(4,5,6,7)              0.0                                            !
 ! D22   D(4,5,6,31)           180.0                                            !
 ! D23   D(30,5,6,7)          -179.9998                                         !
 ! D24   D(30,5,6,31)            0.0002                                         !
 ! D25   D(5,6,7,8)              0.0                                            !
 ! D26   D(5,6,7,32)           180.0                                            !
 ! D27   D(31,6,7,8)          -180.0                                            !
 ! D28   D(31,6,7,32)            0.0                                            !
 ! D29   D(6,7,8,9)              0.0                                            !
 ! D30   D(6,7,8,33)           179.9999                                         !
 ! D31   D(32,7,8,9)          -180.0                                            !
 ! D32   D(32,7,8,33)            0.0                                            !
 ! D33   D(7,8,9,4)              0.0                                            !
 ! D34   D(7,8,9,10)           179.9999                                         !
 ! D35   D(33,8,9,4)          -180.0                                            !
 ! D36   D(33,8,9,10)            0.0                                            !
 ! D37   D(4,9,10,11)          179.9999                                         !
 ! D38   D(4,9,10,29)            0.0002                                         !
 ! D39   D(8,9,10,11)           -0.0001                                         !
 ! D40   D(8,9,10,29)         -179.9998                                         !
 ! D41   D(9,10,11,12)         179.9999                                         !
 ! D42   D(9,10,11,34)          -0.0001                                         !
 ! D43   D(29,10,11,12)         -0.0004                                         !
 ! D44   D(29,10,11,34)        179.9996                                         !
 ! D45   D(9,10,29,2)           -0.0006                                         !
 ! D46   D(9,10,29,28)         179.9999                                         !
 ! D47   D(11,10,29,2)         179.9996                                         !
 ! D48   D(11,10,29,28)          0.0002                                         !
 ! D49   D(10,11,12,13)       -180.0                                            !
 ! D50   D(10,11,12,27)          0.0003                                         !
 ! D51   D(34,11,12,13)          0.0                                            !
 ! D52   D(34,11,12,27)       -179.9997                                         !
 ! D53   D(11,12,13,14)         91.5266                                         !
 ! D54   D(11,12,13,26)        -91.5436                                         !
 ! D55   D(27,12,13,14)        -88.4737                                         !
 ! D56   D(27,12,13,26)         88.4562                                         !
 ! D57   D(11,12,27,28)          0.0001                                         !
 ! D58   D(11,12,27,43)       -179.9998                                         !
 ! D59   D(13,12,27,28)       -179.9997                                         !
 ! D60   D(13,12,27,43)          0.0004                                         !
 ! D61   D(12,13,14,15)         -0.4233                                         !
 ! D62   D(12,13,14,19)        179.7893                                         !
 ! D63   D(26,13,14,15)       -177.3784                                         !
 ! D64   D(26,13,14,19)          2.8342                                         !
 ! D65   D(12,13,26,21)       -179.7889                                         !
 ! D66   D(12,13,26,25)          0.4249                                         !
 ! D67   D(14,13,26,21)         -2.8338                                         !
 ! D68   D(14,13,26,25)        177.3801                                         !
 ! D69   D(13,14,15,16)       -179.7331                                         !
 ! D70   D(13,14,15,35)          0.2546                                         !
 ! D71   D(19,14,15,16)          0.0558                                         !
 ! D72   D(19,14,15,35)       -179.9564                                         !
 ! D73   D(13,14,19,18)        179.8622                                         !
 ! D74   D(13,14,19,20)          0.2007                                         !
 ! D75   D(15,14,19,18)          0.0648                                         !
 ! D76   D(15,14,19,20)       -179.5967                                         !
 ! D77   D(14,15,16,17)         -0.0935                                         !
 ! D78   D(14,15,16,36)        179.9629                                         !
 ! D79   D(35,15,16,17)        179.9187                                         !
 ! D80   D(35,15,16,36)         -0.0249                                         !
 ! D81   D(15,16,17,18)          0.0102                                         !
 ! D82   D(15,16,17,37)       -179.96                                           !
 ! D83   D(36,16,17,18)        179.953                                          !
 ! D84   D(36,16,17,37)         -0.0172                                         !
 ! D85   D(16,17,18,19)          0.1096                                         !
 ! D86   D(16,17,18,38)       -179.9926                                         !
 ! D87   D(37,17,18,19)       -179.92                                           !
 ! D88   D(37,17,18,38)         -0.0221                                         !
 ! D89   D(17,18,19,14)         -0.1484                                         !
 ! D90   D(17,18,19,20)        179.5298                                         !
 ! D91   D(38,18,19,14)        179.9501                                         !
 ! D92   D(38,18,19,20)         -0.3717                                         !
 ! D93   D(14,19,20,21)         -3.1881                                         !
 ! D94   D(18,19,20,21)        177.137                                          !
 ! D95   D(19,20,21,22)       -177.1371                                         !
 ! D96   D(19,20,21,26)          3.1885                                         !
 ! D97   D(20,21,22,23)       -179.5286                                         !
 ! D98   D(20,21,22,39)          0.3724                                         !
 ! D99   D(26,21,22,23)          0.1491                                         !
 ! D100  D(26,21,22,39)       -179.9498                                         !
 ! D101  D(20,21,26,13)         -0.2016                                         !
 ! D102  D(20,21,26,25)        179.5946                                         !
 ! D103  D(22,21,26,13)       -179.8626                                         !
 ! D104  D(22,21,26,25)         -0.0663                                         !
 ! D105  D(21,22,23,24)         -0.1093                                         !
 ! D106  D(21,22,23,40)        179.9202                                         !
 ! D107  D(39,22,23,24)        179.9933                                         !
 ! D108  D(39,22,23,40)          0.0228                                         !
 ! D109  D(22,23,24,25)         -0.0106                                         !
 ! D110  D(22,23,24,41)       -179.9539                                         !
 ! D111  D(40,23,24,25)        179.9597                                         !
 ! D112  D(40,23,24,41)          0.0164                                         !
 ! D113  D(23,24,25,26)          0.093                                          !
 ! D114  D(23,24,25,42)       -179.9192                                         !
 ! D115  D(41,24,25,26)       -179.9628                                         !
 ! D116  D(41,24,25,42)          0.0249                                         !
 ! D117  D(24,25,26,13)        179.7333                                         !
 ! D118  D(24,25,26,21)         -0.0544                                         !
 ! D119  D(42,25,26,13)         -0.2545                                         !
 ! D120  D(42,25,26,21)        179.9578                                         !
 ! D121  D(12,27,28,29)         -0.0003                                         !
 ! D122  D(12,27,28,44)        179.9998                                         !
 ! D123  D(43,27,28,29)        179.9996                                         !
 ! D124  D(43,27,28,44)         -0.0003                                         !
 ! D125  D(27,28,29,2)        -179.9992                                         !
 ! D126  D(27,28,29,10)          0.0002                                         !
 ! D127  D(44,28,29,2)           0.0007                                         !
 ! D128  D(44,28,29,10)       -179.9999                                         !
 --------------------------------------------------------------------------------
                          Input orientation:                          
 ---------------------------------------------------------------------
 Center     Atomic      Atomic             Coordinates (Angstroms)
 Number     Number       Type             X           Y           Z
 ---------------------------------------------------------------------
      1          8           0        4.529314    0.463353   -2.645995
      2         16           0        3.996980    1.282562   -1.547696
      3          8           0        4.244587    2.731506   -1.546465
      4          6           0        4.417334    0.561906    0.047766
      5          6           0        5.690358    0.460341    0.586911
      6          6           0        5.820752   -0.133844    1.846420
      7          6           0        4.692259   -0.604455    2.525043
      8          6           0        3.416824   -0.493267    1.965423
      9          6           0        3.271329    0.097721    0.708599
     10          6           0        2.028256    0.315190   -0.061891
     11          6           0        0.721763   -0.022042    0.295486
     12          6           0       -0.330122    0.270997   -0.581389
     13          7           0       -1.667049   -0.075192   -0.213412
     14          6           0       -2.480015    0.854745    0.470010
     15          6           0       -2.036701    2.132543    0.826665
     16          6           0       -2.878295    3.017342    1.508727
     17          6           0       -4.174613    2.639164    1.842298
     18          6           0       -4.629657    1.364809    1.489490
     19          6           0       -3.793760    0.486636    0.815176
     20          8           0       -4.310149   -0.757355    0.509421
     21          6           0       -3.527456   -1.635777   -0.214058
     22          6           0       -4.100541   -2.852174   -0.555474
     23          6           0       -3.366971   -3.797578   -1.279079
     24          6           0       -2.059858   -3.505374   -1.654311
     25          6           0       -1.483301   -2.277858   -1.312041
     26          6           0       -2.206508   -1.325052   -0.587041
     27          6           0       -0.084476    0.897828   -1.810879
     28          6           0        1.219402    1.240359   -2.179883
     29          6           0        2.245492    0.941251   -1.297156
     30          1           0        6.556718    0.830570    0.047485
     31          1           0        6.803768   -0.229216    2.297696
     32          1           0        4.806808   -1.063925    3.502547
     33          1           0        2.550951   -0.864085    2.506181
     34          1           0        0.499642   -0.507969    1.240385
     35          1           0       -1.028589    2.438545    0.570628
     36          1           0       -2.506302    4.002808    1.773089
     37          1           0       -4.833735    3.320749    2.371048
     38          1           0       -5.633951    1.031031    1.730989
     39          1           0       -5.123026   -3.041005   -0.243697
     40          1           0       -3.821331   -4.747923   -1.541713
     41          1           0       -1.473802   -4.225869   -2.217194
     42          1           0       -0.464075   -2.060365   -1.610966
     43          1           0       -0.919854    1.112312   -2.469635
     44          1           0        1.421602    1.726059   -3.129488
 ---------------------------------------------------------------------
                    Distance matrix (angstroms):
                    1          2          3          4          5
     1  O    0.000000
     2  S    1.469946   0.000000
     3  O    2.536642   1.469949   0.000000
     4  C    2.697888   1.800429   2.697884   0.000000
     5  C    3.435071   2.846072   3.435075   1.386212   0.000000
     6  C    4.712351   4.105165   4.712346   2.385122   1.398722
     7  C    5.282651   4.542186   5.282635   2.751887   2.426180
     8  C    4.839208   3.978965   4.839185   2.406620   2.824646
     9  C    3.601321   2.649771   3.601301   1.401961   2.449082
    10  C    3.599283   2.649397   3.599260   2.404286   3.721963
    11  C    4.835841   3.978236   4.835815   3.749614   5.000456
    12  C    5.283343   4.547617   5.283317   4.797792   6.135712
    13  N    6.678503   5.975369   6.678475   6.123221   7.420159
    14  C    7.680714   6.797472   7.266958   6.916464   8.180722
    15  C    7.613022   6.539523   6.741297   6.687911   7.909563
    16  C    8.868892   7.721437   7.755731   7.835163   8.989429
    17  C   10.031813   8.950272   9.076078   9.019807  10.180419
    18  C   10.089678   9.146044   9.478243   9.196264  10.398819
    19  C    9.014089   8.179993   8.673627   8.247221   9.486901
    20  O    9.464824   8.797806   9.464795   8.838696  10.074669
    21  C    8.673650   8.180002   9.014052   8.247306   9.487010
    22  C    9.478259   9.146059  10.089634   9.196415  10.399015
    23  C    9.076085   8.950294  10.031763   9.020035  10.180718
    24  C    7.755734   7.721462   8.868840   7.835423   8.989762
    25  C    6.741307   6.539542   7.612976   6.688112   7.909813
    26  C    7.266979   6.797483   7.680676   6.916566   8.180849
    27  C    4.708848   4.107988   4.708830   4.881977   6.268134
    28  C    3.431693   2.848926   3.431688   3.955944   5.315358
    29  C    2.695106   1.801936   2.695098   2.582560   3.955767
    30  H    3.391172   3.049780   3.391192   2.156187   1.085647
    31  H    5.485697   4.995055   5.485696   3.373889   2.154520
    32  H    6.341462   5.627324   6.341444   3.838037   3.406608
    33  H    5.676348   4.809680   5.676321   3.400094   3.910701
    34  H    5.682049   4.817757   5.682020   4.232646   5.320545
    35  H    6.718507   5.574938   5.689842   5.783877   7.004128
    36  H    9.030832   7.792306   7.629558   7.921697   9.007848
    37  H   11.000096   9.873818   9.905051   9.929306  11.050865
    38  H   11.080262  10.176830  10.546034  10.202042  11.396253
    39  H   10.546052  10.176844  11.080219  10.202176  11.396430
    40  H    9.905055   9.873843  11.000042   9.929569  11.051212
    41  H    7.629553   7.792336   9.030776   7.922015   9.008261
    42  H    5.689848   5.574960   6.718459   5.784104   7.004404
    43  H    5.490508   5.005418   5.490490   5.926705   7.311801
    44  H    3.389110   3.054722   3.389119   4.519359   5.799650
                    6          7          8          9         10
     6  C    0.000000
     7  C    1.398392   0.000000
     8  C    2.433560   1.397237   0.000000
     9  C    2.801395   2.410718   1.396439   0.000000
    10  C    4.269228   3.825557   2.586838   1.478573   0.000000
    11  C    5.330814   4.590748   3.205323   2.585593   1.395839
    12  C    6.625059   5.969979   4.594557   3.829431   2.415321
    13  N    7.766178   6.944066   5.546880   5.026687   3.718956
    14  C    8.471985   7.602232   6.231060   5.805856   4.571492
    15  C    8.241114   7.460197   6.158943   5.685914   4.540504
    16  C    9.258371   8.453615   7.222290   6.854362   5.817449
    17  C   10.372893   9.466183   8.213234   7.948979   6.892197
    18  C   10.563352   9.583761   8.271929   8.039955   6.916378
    19  C    9.689546   8.725058   7.367211   7.076588   5.890204
    20  O   10.237748   9.226563   7.867389   7.632146   6.453846
    21  C    9.689704   8.725251   7.367394   7.076708   5.890277
    22  C   10.563639   9.584110   8.272252   8.040164   6.916500
    23  C   10.373329   9.466709   8.213717   7.949293   6.892378
    24  C    9.258852   8.454195   7.222832   6.854720   5.817661
    25  C    8.241472   7.460633   6.159364   5.686200   4.540683
    26  C    8.472167   7.602455   6.231277   5.806003   4.571586
    27  C    7.022244   6.623766   5.334296   4.271928   2.803937
    28  C    6.266735   6.131917   5.001768   3.722815   2.448688
    29  C    4.880614   4.794277   3.751571   2.405606   1.401793
    30  H    2.169772   3.416694   3.910238   3.430440   4.559007
    31  H    1.085848   2.156608   3.413432   3.887189   5.354395
    32  H    2.153111   1.086162   2.149524   3.393120   4.725201
    33  H    3.414693   2.157072   1.086122   2.162248   2.873830
    34  H    5.368562   4.386080   3.005969   2.886505   2.170294
    35  H    7.426863   6.768138   5.504786   4.897733   3.775317
    36  H    9.298230   8.579719   7.438757   7.054351   6.126002
    37  H   11.212829  10.304149   9.098514   8.879398   7.876515
    38  H   11.514359  10.485034   9.181229   9.012234   7.901662
    39  H   11.514618  10.485347   9.181515   9.012417   7.901767
    40  H   11.213337  10.304759   9.099066   8.879752   7.876715
    41  H    9.298825   8.580429   7.439411   7.054783   6.126251
    42  H    7.427251   6.768606   5.505246   4.898057   3.775527
    43  H    8.100432   7.706485   6.407370   5.356918   3.888956
    44  H    6.897204   6.935576   5.904612   4.561128   3.430558
                   11         12         13         14         15
    11  C    0.000000
    12  C    1.400445   0.000000
    13  N    2.442996   1.429206   0.000000
    14  C    3.324244   2.463380   1.411652   0.000000
    15  C    3.540270   2.891432   2.468298   1.398748   0.000000
    16  C    4.865206   4.290009   3.741209   2.431951   1.398699
    17  C    5.783524   5.124704   4.228658   2.817621   2.420506
    18  C    5.655678   4.896015   3.708169   2.433200   2.784273
    19  C    4.573705   3.740813   2.428279   1.407327   2.407571
    20  O    5.089853   4.252998   2.823794   2.439224   3.690626
    21  C    4.573799   3.740811   2.428279   2.787074   4.183980
    22  C    5.655829   4.896012   3.708169   4.173604   5.569304
    23  C    5.783743   5.124698   4.228657   5.048774   6.431960
    24  C    4.865462   4.290003   3.741208   4.868255   6.159698
    25  C    3.540503   2.891425   2.468297   3.739298   4.932743
    26  C    3.324374   2.463378   1.411653   2.437966   3.739299
    27  C    2.435767   1.401751   2.450144   3.308008   3.506043
    28  C    2.822898   2.428141   3.732195   4.566872   4.520788
    29  C    2.405451   2.755966   4.185169   5.045867   4.926151
    30  H    5.902131   6.938095   8.277609   9.046637   8.726345
    31  H    6.406445   7.709198   8.836523   9.523866   9.267994
    32  H    5.297013   6.696909   7.529726   8.122522   8.013199
    33  H    2.990341   4.372881   5.080361   5.693065   5.731239
    34  H    1.085494   2.148059   2.644877   3.365831   3.684630
    35  H    3.032149   2.552110   2.709469   2.150624   1.084196
    36  H    5.366855   4.919933   4.613092   3.407200   2.148054
    37  H    6.807772   6.188731   5.314107   3.903218   3.408864
    38  H    6.600359   5.835696   4.554199   3.401243   3.869282
    39  H    6.600486   5.835694   4.554200   4.761486   6.118551
    40  H    6.808007   6.188725   5.314107   6.102135   7.492324
    41  H    5.367144   4.919925   4.613091   5.834909   7.071869
    42  H    3.032414   2.552101   2.709468   4.110029   5.098595
    43  H    3.409921   2.149666   2.656879   3.337957   3.626818
    44  H    3.908463   3.417389   4.613867   5.379423   5.270316
                   16         17         18         19         20
    16  C    0.000000
    17  C    1.390945   0.000000
    18  C    2.408008   1.398399   0.000000
    19  C    2.779129   2.415245   1.387303   0.000000
    20  O    4.158985   3.651202   2.359280   1.381180   0.000000
    21  C    5.004090   4.787749   3.622215   2.373790   1.381179
    22  C    6.340822   5.992461   4.716437   3.622215   2.359280
    23  C    7.379282   7.199092   5.992461   4.787749   3.651201
    24  C    7.295236   7.379283   6.340823   5.004091   4.158985
    25  C    6.159698   6.431961   5.569304   4.183981   3.690626
    26  C    4.868256   5.048775   4.173605   2.787076   2.439224
    27  C    4.828825   5.753884   5.636415   4.563335   5.097032
    28  C    5.792636   6.872409   6.905887   5.888146   6.465227
    29  C    6.199704   7.345532   7.430509   6.414139   7.008953
    30  H    9.794727  11.029680  11.291579  10.384605  10.991983
    31  H   10.242312  11.356049  11.572265  10.724640  11.269251
    32  H    8.927086   9.855720   9.949775   9.143083   9.600609
    33  H    6.748119   7.612274   7.587013   6.703679   7.146548
    34  H    4.889814   5.667046   5.466173   4.427566   4.871406
    35  H    2.153242   3.399245   3.868450   3.393512   4.581066
    36  H    1.086007   2.155825   3.398251   3.865050   5.244986
    37  H    2.158563   1.085621   2.155108   3.396245   4.513394
    38  H    3.404184   2.174430   1.085512   2.126354   2.538307
    39  H    6.694278   6.124963   4.760099   3.915662   2.538308
    40  H    8.396060   8.132982   6.870740   5.740757   4.513394
    41  H    8.265542   8.420364   7.413137   6.065078   5.244986
    42  H    6.429934   6.912214   6.220668   4.843570   4.581065
    43  H    4.826178   5.614045   5.431488   4.409171   4.885134
    44  H    6.455197   7.541223   7.621233   6.655565   7.229245
                   21         22         23         24         25
    21  C    0.000000
    22  C    1.387304   0.000000
    23  C    2.415245   1.398399   0.000000
    24  C    2.779130   2.408008   1.390945   0.000000
    25  C    2.407572   2.784273   2.420506   1.398700   0.000000
    26  C    1.407327   2.433199   2.817619   2.431949   1.398747
    27  C    4.563234   5.636252   5.753645   4.828544   3.505786
    28  C    5.888064   6.905746   6.872196   5.792388   4.520577
    29  C    6.414133   7.430498   7.345514   6.199683   4.926133
    30  H   10.384692  11.291737  11.029920   9.794993   8.726542
    31  H   10.724808  11.572573  11.356516  10.242823   9.268368
    32  H    9.143310   9.950188   9.856342   8.927763   8.013698
    33  H    6.703898   7.587396   7.612844   6.748753   5.731734
    34  H    4.427739   5.466451   5.667444   4.890270   3.685030
    35  H    4.843570   6.220667   6.912213   6.429933   5.098595
    36  H    6.065077   7.413136   8.420363   8.265542   7.071869
    37  H    5.740756   6.870740   8.132982   8.396062   7.492326
    38  H    3.915660   4.760098   6.124963   6.694278   6.118551
    39  H    2.126355   1.085512   2.174430   3.404184   3.869282
    40  H    3.396245   2.155108   1.085622   2.158563   3.408863
    41  H    3.865051   3.398251   2.155825   1.086007   2.148054
    42  H    3.393513   3.868451   3.399245   2.153242   1.084196
    43  H    4.408992   5.431200   5.613629   4.825701   3.626397
    44  H    6.655438   7.621012   7.540889   6.454812   5.270003
                   26         27         28         29         30
    26  C    0.000000
    27  C    3.307869   0.000000
    28  C    4.566765   1.397709   0.000000
    29  C    5.045860   2.386325   1.386193   0.000000
    30  H    9.046738   6.896629   5.797934   4.517408   0.000000
    31  H    9.524056   8.099292   7.307086   5.922064   2.499527
    32  H    8.122778   7.483691   7.104169   5.798122   4.311467
    33  H    5.693324   5.356009   5.306685   4.221128   4.996320
    34  H    3.366060   3.409938   3.908061   3.404020   6.316872
    35  H    4.110031   2.989437   3.748923   4.055874   7.771495
    36  H    5.834911   5.324563   6.094094   6.432658   9.755979
    37  H    6.102136   6.776025   7.853627   8.320648  11.888748
    38  H    4.761486   6.584774   7.893490   8.441762  12.307996
    39  H    3.401243   6.584637   7.893369   8.441753  12.308139
    40  H    3.903216   6.775769   7.853392   8.320628  11.889030
    41  H    3.407198   5.324246   6.093799   6.432631   9.756310
    42  H    2.150623   2.989142   3.748672   4.055851   7.771711
    43  H    3.337721   1.085273   2.162583   3.379849   7.893946
    44  H    5.379265   2.166326   1.085605   2.156886   6.104463
                   31         32         33         34         35
    31  H    0.000000
    32  H    2.477146   0.000000
    33  H    4.304994   2.474180   0.000000
    34  H    6.398251   4.896748   2.436582   0.000000
    35  H    8.452545   7.410486   5.240881   3.386149   0.000000
    36  H   10.240246   9.063354   7.056903   5.446704   2.465049
    37  H   12.167132  10.651090   8.489092   6.662010   4.301038
    38  H   12.514241  10.795217   8.437121   6.342726   4.953473
    39  H   12.514521  10.795591   8.437460   6.342961   6.888614
    40  H   12.167683  10.651816   8.489737   6.662438   7.994168
    41  H   10.240880   9.064181   7.057656   5.447212   7.237719
    42  H    8.452946   7.411013   5.241410   3.386575   5.031721
    43  H    9.175046   8.555560   6.380547   4.290050   3.318722
    44  H    7.889559   7.951573   6.304367   4.993665   4.494656
                   36         37         38         39         40
    36  H    0.000000
    37  H    2.497940   0.000000
    38  H    4.314560   2.508551   0.000000
    39  H    7.780101   6.884220   4.554328   0.000000
    40  H    9.449471   9.024307   6.884219   2.508550   0.000000
    41  H    9.203235   9.449473   7.780101   4.314560   2.497941
    42  H    7.237720   7.994169   6.888614   4.953473   4.301038
    43  H    5.373313   6.605139   6.314630   6.314388   6.604692
    44  H    6.681862   8.481047   8.595820   8.595629   8.480673
                   41         42         43         44
    41  H    0.000000
    42  H    2.465049   0.000000
    43  H    5.372779   3.318271   0.000000
    44  H    6.681399   4.494295   2.508886   0.000000
 Stoichiometry    C24H15NO3S
 Framework group  C1[X(C24H15NO3S)]
 Deg. of freedom   126
 Full point group                 C1      NOp   1
 Largest Abelian subgroup         C1      NOp   1
 Largest concise Abelian subgroup C1      NOp   1
                         Standard orientation:                         
 ---------------------------------------------------------------------
 Center     Atomic      Atomic             Coordinates (Angstroms)
 Number     Number       Type             X           Y           Z
 ---------------------------------------------------------------------
      1          8           0       -4.337915    1.268999   -1.936690
      2         16           0       -3.880464    0.000489   -1.351572
      3          8           0       -4.337909   -1.267643   -1.937520
      4          6           0       -4.114603   -0.000101    0.433567
      5          6           0       -5.332011   -0.000311    1.096516
      6          6           0       -5.314100   -0.000783    2.495123
      7          6           0       -4.097954   -0.001030    3.185404
      8          6           0       -2.880545   -0.000812    2.499703
      9          6           0       -2.882938   -0.000340    1.103266
     10          6           0       -1.723070   -0.000042    0.186268
     11          6           0       -0.365814   -0.000164    0.512186
     12          6           0        0.589033    0.000170   -0.512271
     13          7           0        1.978176    0.000043   -0.176248
     14          6           0        2.677048   -1.218995   -0.041026
     15          6           0        2.068159   -2.466325   -0.213996
     16          6           0        2.801885   -3.647631   -0.063924
     17          6           0        4.153980   -3.599679    0.258982
     18          6           0        4.774133   -2.358411    0.432713
     19          6           0        4.045429   -1.187028    0.286205
     20          8           0        4.723955   -0.000199    0.482925
     21          6           0        4.045533    1.186761    0.286649
     22          6           0        4.774338    2.358026    0.433596
     23          6           0        4.154286    3.599413    0.260354
     24          6           0        2.802188    3.647605   -0.062505
     25          6           0        2.068361    2.466418   -0.213022
     26          6           0        2.677153    1.218971   -0.040561
     27          6           0        0.196208    0.000630   -1.857854
     28          6           0       -1.159793    0.000764   -2.196753
     29          6           0       -2.087985    0.000423   -1.167194
     30          1           0       -6.267846   -0.000111    0.546206
     31          1           0       -6.250031   -0.000958    3.045669
     32          1           0       -4.097491   -0.001397    4.271565
     33          1           0       -1.945041   -0.001008    3.051513
     34          1           0       -0.030364   -0.000514    1.544548
     35          1           0        1.015081   -2.515721   -0.467114
     36          1           0        2.302051   -4.601583   -0.203760
     37          1           0        4.730034   -4.512333    0.376444
     38          1           0        5.826833   -2.277449    0.684911
     39          1           0        5.827034    2.276879    0.685753
     40          1           0        4.730421    4.511973    0.378155
     41          1           0        2.302429    4.601652   -0.201951
     42          1           0        1.015280    2.516000   -0.466092
     43          1           0        0.958976    0.000879   -2.629866
     44          1           0       -1.475748    0.001123   -3.235363
 ---------------------------------------------------------------------
 Rotational constants (GHZ):           0.2786955           0.0900607           0.0832123
 Standard basis: 6-31G(d) (6D, 7F)
 There are   469 symmetry adapted cartesian basis functions of A   symmetry.
 There are   469 symmetry adapted basis functions of A   symmetry.
   469 basis functions,   896 primitive gaussians,   469 cartesian basis functions
   103 alpha electrons      103 beta electrons
       nuclear repulsion energy      2721.5076807747 Hartrees.
 NAtoms=   44 NActive=   44 NUniq=   44 SFac= 1.00D+00 NAtFMM=   60 NAOKFM=F Big=F
 Integral buffers will be    131072 words long.
 Regular integral format.
 Two-electron integral symmetry is turned on.
 One-electron integrals computed using PRISM.
 NBasis=   469 RedAO= T EigKep=  3.56D-04  NBF=   469
 NBsUse=   469 1.00D-06 EigRej= -1.00D+00 NBFU=   469
 Initial guess from the checkpoint file:  "/home/junhkim/WORK/Review_DD/TADF-Design/data/td_dft/results/mol_337/Gau-1890578.chk"
 B after Tr=    -0.000000   -0.000000   -0.000000
         Rot=    1.000000    0.000000   -0.000000    0.000000 Ang=   0.00 deg.
 Requested convergence on RMS density matrix=1.00D-08 within  32 cycles.
 Requested convergence on MAX density matrix=1.00D-06.
 Requested convergence on             energy=1.00D-06.
 No special actions if energy rises.
 SCF Done:  E(RB3LYP) =  -1602.12975186     A.U. after    1 cycles
            NFock=  1  Conv=0.37D-08     -V/T= 2.0081
 QCSCF skips out because SCF is already converged.
 DoSCS=F DFT=T ScalE2(SS,OS)=  1.000000  1.000000
 ExpMin= 1.17D-01 ExpMax= 2.19D+04 ExpMxC= 3.30D+03 IAcc=3 IRadAn=         5 AccDes= 0.00D+00
 HarFok:  IExCor=  205 AccDes= 0.00D+00 IRadAn=         5 IDoV=-2 UseB2=F ITyADJ=14
 ICtDFT= 12500011 ScaDFX=  1.000000  1.000000  1.000000  1.000000
 GSVD:  LWork=       -1353 too small for GESVD, short by        5940 words or        5940 for optimal perf.
 Range of M.O.s used for correlation:    34   469
 NBasis=   469 NAE=   103 NBE=   103 NFC=    33 NFV=     0
 NROrb=    436 NOA=    70 NOB=    70 NVA=   366 NVB=   366

 **** Warning!!: The largest alpha MO coefficient is  0.12709038D+02

 Orbital symmetries:
       Occupied  (A) (A) (A) (A) (A) (A) (A) (A) (A) (A) (A) (A)
                 (A) (A) (A) (A) (A) (A) (A) (A) (A) (A) (A) (A)
                 (A) (A) (A) (A) (A) (A) (A) (A) (A) (A) (A) (A)
                 (A) (A) (A) (A) (A) (A) (A) (A) (A) (A) (A) (A)
                 (A) (A) (A) (A) (A) (A) (A) (A) (A) (A) (A) (A)
                 (A) (A) (A) (A) (A) (A) (A) (A) (A) (A) (A) (A)
                 (A) (A) (A) (A) (A) (A) (A) (A) (A) (A) (A) (A)
                 (A) (A) (A) (A) (A) (A) (A) (A) (A) (A) (A) (A)
                 (A) (A) (A) (A) (A) (A) (A)
       Virtual   (A) (A) (A) (A) (A) (A) (A) (A) (A) (A) (A) (A)
                 (A) (A) (A) (A) (A) (A) (A) (A) (A) (A) (A) (A)
                 (A) (A) (A) (A) (A) (A) (A) (A) (A) (A) (A) (A)
                 (A) (A) (A) (A) (A) (A) (A) (A) (A) (A) (A) (A)
                 (A) (A) (A) (A) (A) (A) (A) (A) (A) (A) (A) (A)
                 (A) (A) (A) (A) (A) (A) (A) (A) (A) (A) (A) (A)
                 (A) (A) (A) (A) (A) (A) (A) (A) (A) (A) (A) (A)
                 (A) (A) (A) (A) (A) (A) (A) (A) (A) (A) (A) (A)
                 (A) (A) (A) (A) (A) (A) (A) (A) (A) (A) (A) (A)
                 (A) (A) (A) (A) (A) (A) (A) (A) (A) (A) (A) (A)
                 (A) (A) (A) (A) (A) (A) (A) (A) (A) (A) (A) (A)
                 (A) (A) (A) (A) (A) (A) (A) (A) (A) (A) (A) (A)
                 (A) (A) (A) (A) (A) (A) (A) (A) (A) (A) (A) (A)
                 (A) (A) (A) (A) (A) (A) (A) (A) (A) (A) (A) (A)
                 (A) (A) (A) (A) (A) (A) (A) (A) (A) (A) (A) (A)
                 (A) (A) (A) (A) (A) (A) (A) (A) (A) (A) (A) (A)
                 (A) (A) (A) (A) (A) (A) (A) (A) (A) (A) (A) (A)
                 (A) (A) (A) (A) (A) (A) (A) (A) (A) (A) (A) (A)
                 (A) (A) (A) (A) (A) (A) (A) (A) (A) (A) (A) (A)
                 (A) (A) (A) (A) (A) (A) (A) (A) (A) (A) (A) (A)
                 (A) (A) (A) (A) (A) (A) (A) (A) (A) (A) (A) (A)
                 (A) (A) (A) (A) (A) (A) (A) (A) (A) (A) (A) (A)
                 (A) (A) (A) (A) (A) (A) (A) (A) (A) (A) (A) (A)
                 (A) (A) (A) (A) (A) (A) (A) (A) (A) (A) (A) (A)
                 (A) (A) (A) (A) (A) (A) (A) (A) (A) (A) (A) (A)
                 (A) (A) (A) (A) (A) (A) (A) (A) (A) (A) (A) (A)
                 (A) (A) (A) (A) (A) (A) (A) (A) (A) (A) (A) (A)
                 (A) (A) (A) (A) (A) (A) (A) (A) (A) (A) (A) (A)
                 (A) (A) (A) (A) (A) (A) (A) (A) (A) (A) (A) (A)
                 (A) (A) (A) (A) (A) (A) (A) (A) (A) (A) (A) (A)
                 (A) (A) (A) (A) (A) (A)
     8 initial guesses have been made.
 Convergence on wavefunction:    0.001000000000000
 Iteration     1 Dimension     8 NMult     0 NNew      8
 CISAX will form     8 AO SS matrices at one time.
 New state      1 was old state      2
 New state      2 was old state      1
 New state      3 was old state      4
 New state      4 was old state      3
 Iteration     2 Dimension    12 NMult     8 NNew      4
 Iteration     3 Dimension    16 NMult    12 NNew      4
 Iteration     4 Dimension    20 NMult    16 NNew      4
 Iteration     5 Dimension    24 NMult    20 NNew      4
 Iteration     6 Dimension    26 NMult    24 NNew      2
 ***********************************************************************
 Excited states from <AA,BB:AA,BB> singles matrix:
 ***********************************************************************
 
 Ground to excited state transition densities written to RWF  633
 Ground to excited state transition electric dipole moments (Au):
       state          X           Y           Z        Dip. S.      Osc.
         1        -0.0000      0.0000     -0.0000      0.0000      0.0000
         2        -0.0003     -0.0152     -0.0001      0.0002      0.0000
 Ground to excited state transition velocity dipole moments (Au):
       state          X           Y           Z        Dip. S.      Osc.
         1         0.0000      0.0000      0.0000      0.0000      0.0000
         2         0.0000      0.0097      0.0000      0.0001      0.0008
 Ground to excited state transition magnetic dipole moments (Au):
       state          X           Y           Z
         1        -0.0000     -0.0000      0.0000
         2        -0.1577     -0.0001      0.2276
 Ground to excited state transition velocity quadrupole moments (Au):
       state          XX          YY          ZZ          XY          XZ          YZ
         1         0.0000      0.0000     -0.0000     -0.0000      0.0000     -0.0000
         2         0.0000      0.0001     -0.0000      0.0211      0.0000     -0.0119
 <0|del|b> * <b|rxdel|0> + <0|del|b> * <b|delr+rdel|0>
 Rotatory Strengths (R) in cgs (10**-40 erg-esu-cm/Gauss)
       state          XX          YY          ZZ    R(velocity)    E-M Angle
         1        -0.0000      0.0000      0.0000      0.0000       90.00
         2         0.0060     -0.0098     -0.0163     -0.0067       90.00
 1/2[<0|r|b>*<b|rxdel|0> + (<0|rxdel|b>*<b|r|0>)*]
 Rotatory Strengths (R) in cgs (10**-40 erg-esu-cm/Gauss)
       state          XX          YY          ZZ     R(length)
         1        -0.0000      0.0000      0.0000      0.0000
         2        -0.0328     -0.0006      0.0085     -0.0083
  1/2[<0|del|b>*<b|r|0> + (<0|r|b>*<b|del|0>)*] (Au)
       state          X           Y           Z        Dip. S.   Osc.(frdel)
         1        -0.0000      0.0000     -0.0000     -0.0000     -0.0000
         2        -0.0000     -0.0001     -0.0000      0.0001      0.0001

 Excitation energies and oscillator strengths:
 
 Excited State   1:      Triplet-A      2.2444 eV  552.41 nm  f=0.0000  <S**2>=2.000
     103 ->104         0.70055
 This state for optimization and/or second-order correction.
 Total Energy, E(TD-HF/TD-DFT) =  -1602.04727089    
 Copying the excited state density for this state as the 1-particle RhoCI density.
 
 Excited State   2:      Singlet-A      2.2596 eV  548.70 nm  f=0.0000  <S**2>=0.000
     103 ->104         0.70205
 SavETr:  write IOETrn=   770 NScale= 10 NData=  16 NLR=1 NState=    2 LETran=      46.

 **********************************************************************

            Population analysis using the SCF Density.

 **********************************************************************

 Orbital symmetries:
       Occupied  (A) (A) (A) (A) (A) (A) (A) (A) (A) (A) (A) (A)
                 (A) (A) (A) (A) (A) (A) (A) (A) (A) (A) (A) (A)
                 (A) (A) (A) (A) (A) (A) (A) (A) (A) (A) (A) (A)
                 (A) (A) (A) (A) (A) (A) (A) (A) (A) (A) (A) (A)
                 (A) (A) (A) (A) (A) (A) (A) (A) (A) (A) (A) (A)
                 (A) (A) (A) (A) (A) (A) (A) (A) (A) (A) (A) (A)
                 (A) (A) (A) (A) (A) (A) (A) (A) (A) (A) (A) (A)
                 (A) (A) (A) (A) (A) (A) (A) (A) (A) (A) (A) (A)
                 (A) (A) (A) (A) (A) (A) (A)
       Virtual   (A) (A) (A) (A) (A) (A) (A) (A) (A) (A) (A) (A)
                 (A) (A) (A) (A) (A) (A) (A) (A) (A) (A) (A) (A)
                 (A) (A) (A) (A) (A) (A) (A) (A) (A) (A) (A) (A)
                 (A) (A) (A) (A) (A) (A) (A) (A) (A) (A) (A) (A)
                 (A) (A) (A) (A) (A) (A) (A) (A) (A) (A) (A) (A)
                 (A) (A) (A) (A) (A) (A) (A) (A) (A) (A) (A) (A)
                 (A) (A) (A) (A) (A) (A) (A) (A) (A) (A) (A) (A)
                 (A) (A) (A) (A) (A) (A) (A) (A) (A) (A) (A) (A)
                 (A) (A) (A) (A) (A) (A) (A) (A) (A) (A) (A) (A)
                 (A) (A) (A) (A) (A) (A) (A) (A) (A) (A) (A) (A)
                 (A) (A) (A) (A) (A) (A) (A) (A) (A) (A) (A) (A)
                 (A) (A) (A) (A) (A) (A) (A) (A) (A) (A) (A) (A)
                 (A) (A) (A) (A) (A) (A) (A) (A) (A) (A) (A) (A)
                 (A) (A) (A) (A) (A) (A) (A) (A) (A) (A) (A) (A)
                 (A) (A) (A) (A) (A) (A) (A) (A) (A) (A) (A) (A)
                 (A) (A) (A) (A) (A) (A) (A) (A) (A) (A) (A) (A)
                 (A) (A) (A) (A) (A) (A) (A) (A) (A) (A) (A) (A)
                 (A) (A) (A) (A) (A) (A) (A) (A) (A) (A) (A) (A)
                 (A) (A) (A) (A) (A) (A) (A) (A) (A) (A) (A) (A)
                 (A) (A) (A) (A) (A) (A) (A) (A) (A) (A) (A) (A)
                 (A) (A) (A) (A) (A) (A) (A) (A) (A) (A) (A) (A)
                 (A) (A) (A) (A) (A) (A) (A) (A) (A) (A) (A) (A)
                 (A) (A) (A) (A) (A) (A) (A) (A) (A) (A) (A) (A)
                 (A) (A) (A) (A) (A) (A) (A) (A) (A) (A) (A) (A)
                 (A) (A) (A) (A) (A) (A) (A) (A) (A) (A) (A) (A)
                 (A) (A) (A) (A) (A) (A) (A) (A) (A) (A) (A) (A)
                 (A) (A) (A) (A) (A) (A) (A) (A) (A) (A) (A) (A)
                 (A) (A) (A) (A) (A) (A) (A) (A) (A) (A) (A) (A)
                 (A) (A) (A) (A) (A) (A) (A) (A) (A) (A) (A) (A)
                 (A) (A) (A) (A) (A) (A) (A) (A) (A) (A) (A) (A)
                 (A) (A) (A) (A) (A) (A)
 The electronic state is 1-A.
 Alpha  occ. eigenvalues --  -89.10199 -19.19664 -19.14711 -19.14710 -14.38425
 Alpha  occ. eigenvalues --  -10.26024 -10.25484 -10.25484 -10.24406 -10.24406
 Alpha  occ. eigenvalues --  -10.24183 -10.24059 -10.23816 -10.23720 -10.23233
 Alpha  occ. eigenvalues --  -10.22788 -10.22771 -10.22521 -10.22467 -10.22281
 Alpha  occ. eigenvalues --  -10.22153 -10.19442 -10.19442 -10.19203 -10.19203
 Alpha  occ. eigenvalues --  -10.19094 -10.19094 -10.18948 -10.18948  -8.13067
 Alpha  occ. eigenvalues --   -6.09470  -6.09440  -6.09422  -1.10420  -1.08951
 Alpha  occ. eigenvalues --   -0.99863  -0.98298  -0.91538  -0.88094  -0.86964
 Alpha  occ. eigenvalues --   -0.84247  -0.82172  -0.79782  -0.78121  -0.77034
 Alpha  occ. eigenvalues --   -0.76221  -0.75708  -0.73655  -0.72522  -0.69400
 Alpha  occ. eigenvalues --   -0.66720  -0.65000  -0.64948  -0.61947  -0.61109
 Alpha  occ. eigenvalues --   -0.60492  -0.60479  -0.57537  -0.56907  -0.55017
 Alpha  occ. eigenvalues --   -0.54087  -0.52154  -0.50840  -0.50187  -0.49323
 Alpha  occ. eigenvalues --   -0.48497  -0.47350  -0.47197  -0.47152  -0.46520
 Alpha  occ. eigenvalues --   -0.46324  -0.46047  -0.45528  -0.45202  -0.44003
 Alpha  occ. eigenvalues --   -0.43941  -0.43626  -0.42714  -0.41660  -0.40514
 Alpha  occ. eigenvalues --   -0.39130  -0.39075  -0.38973  -0.38315  -0.38248
 Alpha  occ. eigenvalues --   -0.37545  -0.36718  -0.36278  -0.36126  -0.33815
 Alpha  occ. eigenvalues --   -0.32936  -0.32719  -0.32199  -0.32192  -0.31211
 Alpha  occ. eigenvalues --   -0.29579  -0.28043  -0.27689  -0.26216  -0.25994
 Alpha  occ. eigenvalues --   -0.25218  -0.23181  -0.17976
 Alpha virt. eigenvalues --   -0.07595  -0.05647  -0.03014  -0.01457  -0.00356
 Alpha virt. eigenvalues --    0.00097   0.00728   0.03415   0.04898   0.05705
 Alpha virt. eigenvalues --    0.06605   0.07973   0.08414   0.09153   0.10084
 Alpha virt. eigenvalues --    0.10989   0.12365   0.13585   0.13910   0.14096
 Alpha virt. eigenvalues --    0.14828   0.15422   0.15835   0.15903   0.16677
 Alpha virt. eigenvalues --    0.16981   0.17151   0.17615   0.18146   0.18454
 Alpha virt. eigenvalues --    0.18614   0.18763   0.21331   0.22512   0.23067
 Alpha virt. eigenvalues --    0.23679   0.24582   0.24906   0.26301   0.27066
 Alpha virt. eigenvalues --    0.27955   0.28351   0.30222   0.31049   0.31788
 Alpha virt. eigenvalues --    0.31875   0.32371   0.32766   0.34055   0.36022
 Alpha virt. eigenvalues --    0.36045   0.36624   0.37318   0.38624   0.40008
 Alpha virt. eigenvalues --    0.40485   0.41456   0.42161   0.45992   0.48283
 Alpha virt. eigenvalues --    0.48410   0.49445   0.50259   0.50605   0.50973
 Alpha virt. eigenvalues --    0.51550   0.51556   0.52083   0.53198   0.53610
 Alpha virt. eigenvalues --    0.53864   0.54095   0.54362   0.54447   0.55228
 Alpha virt. eigenvalues --    0.55772   0.55986   0.56605   0.56677   0.56804
 Alpha virt. eigenvalues --    0.57152   0.57623   0.58088   0.58802   0.58905
 Alpha virt. eigenvalues --    0.58916   0.60251   0.60251   0.60614   0.60698
 Alpha virt. eigenvalues --    0.60775   0.60890   0.61100   0.61219   0.61434
 Alpha virt. eigenvalues --    0.62086   0.62253   0.63442   0.65117   0.65341
 Alpha virt. eigenvalues --    0.65610   0.67910   0.68928   0.70759   0.71739
 Alpha virt. eigenvalues --    0.73456   0.75048   0.75487   0.76098   0.76675
 Alpha virt. eigenvalues --    0.76997   0.77286   0.78951   0.79695   0.79870
 Alpha virt. eigenvalues --    0.81673   0.81982   0.82128   0.82602   0.83117
 Alpha virt. eigenvalues --    0.83523   0.83593   0.83661   0.84186   0.85019
 Alpha virt. eigenvalues --    0.85268   0.85614   0.86741   0.87071   0.87973
 Alpha virt. eigenvalues --    0.88147   0.88472   0.88616   0.90098   0.90199
 Alpha virt. eigenvalues --    0.91173   0.91714   0.92202   0.92530   0.92894
 Alpha virt. eigenvalues --    0.93507   0.95095   0.95995   0.97999   0.98981
 Alpha virt. eigenvalues --    1.00208   1.00455   1.01101   1.01104   1.02513
 Alpha virt. eigenvalues --    1.03564   1.04315   1.04691   1.04914   1.07656
 Alpha virt. eigenvalues --    1.08144   1.08529   1.10709   1.11501   1.11679
 Alpha virt. eigenvalues --    1.12763   1.14158   1.15407   1.15956   1.17504
 Alpha virt. eigenvalues --    1.17758   1.18246   1.19242   1.19814   1.20594
 Alpha virt. eigenvalues --    1.21266   1.22680   1.23133   1.25126   1.26091
 Alpha virt. eigenvalues --    1.26289   1.27184   1.27323   1.29006   1.30727
 Alpha virt. eigenvalues --    1.32120   1.35897   1.36858   1.36918   1.37151
 Alpha virt. eigenvalues --    1.37985   1.38941   1.40393   1.41173   1.41720
 Alpha virt. eigenvalues --    1.43173   1.43462   1.44058   1.44438   1.45378
 Alpha virt. eigenvalues --    1.46113   1.46596   1.46943   1.47913   1.48549
 Alpha virt. eigenvalues --    1.48766   1.49023   1.49785   1.49831   1.49938
 Alpha virt. eigenvalues --    1.50307   1.51048   1.52812   1.57971   1.61119
 Alpha virt. eigenvalues --    1.64554   1.68779   1.69959   1.70751   1.70924
 Alpha virt. eigenvalues --    1.74099   1.75162   1.75615   1.78367   1.78723
 Alpha virt. eigenvalues --    1.79418   1.80732   1.80843   1.81076   1.81819
 Alpha virt. eigenvalues --    1.81969   1.82732   1.83361   1.83822   1.84403
 Alpha virt. eigenvalues --    1.84738   1.85163   1.86608   1.87737   1.89365
 Alpha virt. eigenvalues --    1.89770   1.89943   1.90930   1.91192   1.93066
 Alpha virt. eigenvalues --    1.93070   1.93172   1.94154   1.94399   1.96134
 Alpha virt. eigenvalues --    1.96806   1.97705   1.98266   2.00198   2.03183
 Alpha virt. eigenvalues --    2.03998   2.05355   2.05773   2.06498   2.07733
 Alpha virt. eigenvalues --    2.07808   2.08353   2.08640   2.10871   2.11064
 Alpha virt. eigenvalues --    2.12923   2.13030   2.13998   2.14870   2.15873
 Alpha virt. eigenvalues --    2.17213   2.17735   2.18755   2.19596   2.21530
 Alpha virt. eigenvalues --    2.22472   2.23331   2.23736   2.23981   2.25355
 Alpha virt. eigenvalues --    2.25455   2.27965   2.28591   2.28626   2.29357
 Alpha virt. eigenvalues --    2.29485   2.29765   2.29839   2.34363   2.34741
 Alpha virt. eigenvalues --    2.35515   2.37297   2.42555   2.44753   2.44814
 Alpha virt. eigenvalues --    2.48276   2.49851   2.50842   2.52691   2.52963
 Alpha virt. eigenvalues --    2.56629   2.57296   2.60022   2.60310   2.61741
 Alpha virt. eigenvalues --    2.62116   2.63074   2.65131   2.65531   2.66195
 Alpha virt. eigenvalues --    2.66311   2.66886   2.70000   2.70584   2.70671
 Alpha virt. eigenvalues --    2.72409   2.72683   2.73414   2.73778   2.74300
 Alpha virt. eigenvalues --    2.76276   2.77413   2.78863   2.78874   2.81695
 Alpha virt. eigenvalues --    2.81743   2.85237   2.87247   2.89716   2.94347
 Alpha virt. eigenvalues --    2.96739   2.99518   3.01821   3.03858   3.04154
 Alpha virt. eigenvalues --    3.11816   3.22901   3.29600   3.35354   3.43104
 Alpha virt. eigenvalues --    3.50265   3.50589   3.90315   3.92447   3.98057
 Alpha virt. eigenvalues --    4.05985   4.07674   4.08110   4.08748   4.09033
 Alpha virt. eigenvalues --    4.09789   4.12353   4.13055   4.14130   4.16519
 Alpha virt. eigenvalues --    4.16724   4.22956   4.25601   4.26951   4.33002
 Alpha virt. eigenvalues --    4.33461   4.39461   4.40255   4.41813   4.43276
 Alpha virt. eigenvalues --    4.49513   4.64774   4.69801   4.76193   4.78510
 Alpha virt. eigenvalues --    5.01931
          Condensed to atoms (all electrons):
               1          2          3          4          5          6
     1  O    8.194384   0.466560  -0.046697  -0.057020  -0.000182   0.000022
     2  S    0.466560  13.922890   0.466561   0.079452  -0.041440   0.003009
     3  O   -0.046697   0.466561   8.194386  -0.057021  -0.000182   0.000022
     4  C   -0.057020   0.079452  -0.057021   5.584864   0.480914  -0.031360
     5  C   -0.000182  -0.041440  -0.000182   0.480914   4.950293   0.518289
     6  C    0.000022   0.003009   0.000022  -0.031360   0.518289   4.861174
     7  C   -0.000004  -0.001353  -0.000004  -0.045845  -0.017286   0.539584
     8  C   -0.000019   0.005603  -0.000019  -0.095659  -0.050657  -0.033179
     9  C   -0.000127  -0.039616  -0.000128   0.441157  -0.010071  -0.035689
    10  C   -0.000115  -0.043613  -0.000116  -0.016651   0.009097   0.000476
    11  C   -0.000014   0.005603  -0.000014   0.012882  -0.000167   0.000011
    12  C   -0.000007  -0.001431  -0.000007  -0.000141   0.000002   0.000000
    13  N   -0.000000  -0.000004  -0.000000   0.000001   0.000000  -0.000000
    14  C    0.000000   0.000000  -0.000000   0.000000  -0.000000  -0.000000
    15  C   -0.000000   0.000000   0.000000   0.000000  -0.000000  -0.000000
    16  C   -0.000000  -0.000000   0.000000   0.000000   0.000000  -0.000000
    17  C    0.000000   0.000000  -0.000000  -0.000000  -0.000000   0.000000
    18  C    0.000000   0.000000  -0.000000  -0.000000  -0.000000   0.000000
    19  C   -0.000000   0.000000   0.000000   0.000000   0.000000  -0.000000
    20  O    0.000000  -0.000000   0.000000   0.000000  -0.000000   0.000000
    21  C    0.000000   0.000000  -0.000000   0.000000   0.000000  -0.000000
    22  C   -0.000000   0.000000   0.000000  -0.000000  -0.000000   0.000000
    23  C   -0.000000   0.000000   0.000000  -0.000000  -0.000000   0.000000
    24  C    0.000000  -0.000000  -0.000000   0.000000   0.000000  -0.000000
    25  C    0.000000   0.000000  -0.000000   0.000000  -0.000000  -0.000000
    26  C   -0.000000   0.000000   0.000000   0.000000  -0.000000  -0.000000
    27  C    0.000027   0.003238   0.000027  -0.000198   0.000001  -0.000000
    28  C   -0.000211  -0.041190  -0.000212   0.005659  -0.000051   0.000001
    29  C   -0.056872   0.075858  -0.056872  -0.060323   0.005484  -0.000175
    30  H    0.000398  -0.000692   0.000398  -0.037593   0.362061  -0.036948
    31  H    0.000001   0.000010   0.000001   0.004827  -0.041655   0.364207
    32  H   -0.000000   0.000002  -0.000000   0.000795   0.004579  -0.039302
    33  H    0.000000  -0.000067   0.000000   0.007547   0.000279   0.004145
    34  H    0.000000  -0.000037   0.000000  -0.000151   0.000001   0.000001
    35  H    0.000000   0.000002   0.000000  -0.000000  -0.000000   0.000000
    36  H   -0.000000  -0.000000   0.000000   0.000000  -0.000000  -0.000000
    37  H   -0.000000  -0.000000   0.000000  -0.000000   0.000000   0.000000
    38  H   -0.000000   0.000000   0.000000   0.000000  -0.000000  -0.000000
    39  H    0.000000   0.000000  -0.000000   0.000000  -0.000000  -0.000000
    40  H    0.000000  -0.000000  -0.000000  -0.000000   0.000000   0.000000
    41  H    0.000000  -0.000000  -0.000000   0.000000  -0.000000  -0.000000
    42  H    0.000000   0.000002   0.000000  -0.000000  -0.000000   0.000000
    43  H    0.000001   0.000020   0.000001  -0.000000  -0.000000   0.000000
    44  H    0.000412  -0.000435   0.000411   0.000186   0.000001  -0.000000
               7          8          9         10         11         12
     1  O   -0.000004  -0.000019  -0.000127  -0.000115  -0.000014  -0.000007
     2  S   -0.001353   0.005603  -0.039616  -0.043613   0.005603  -0.001431
     3  O   -0.000004  -0.000019  -0.000128  -0.000116  -0.000014  -0.000007
     4  C   -0.045845  -0.095659   0.441157  -0.016651   0.012882  -0.000141
     5  C   -0.017286  -0.050657  -0.010071   0.009097  -0.000167   0.000002
     6  C    0.539584  -0.033179  -0.035689   0.000476   0.000011   0.000000
     7  C    4.869624   0.498632   0.003778   0.007613   0.000072  -0.000002
     8  C    0.498632   5.073947   0.512282  -0.061944  -0.019390   0.000083
     9  C    0.003778   0.512282   4.801345   0.300021  -0.052690   0.005866
    10  C    0.007613  -0.061944   0.300021   4.863137   0.452443   0.009973
    11  C    0.000072  -0.019390  -0.052690   0.452443   5.204481   0.497176
    12  C   -0.000002   0.000083   0.005866   0.009973   0.497176   4.653610
    13  N   -0.000000   0.000002  -0.000145   0.004500  -0.058734   0.251735
    14  C   -0.000000  -0.000000   0.000001  -0.000096  -0.001361  -0.036573
    15  C   -0.000000  -0.000000   0.000003  -0.000280   0.000682   0.001187
    16  C   -0.000000   0.000000   0.000000  -0.000000   0.000048   0.000112
    17  C    0.000000  -0.000000  -0.000000   0.000000   0.000000   0.000018
    18  C   -0.000000  -0.000000   0.000000  -0.000000  -0.000006  -0.000110
    19  C   -0.000000  -0.000000  -0.000000  -0.000002  -0.000203   0.004032
    20  O    0.000000  -0.000000   0.000000  -0.000000   0.000002  -0.000266
    21  C   -0.000000  -0.000000  -0.000000  -0.000002  -0.000203   0.004032
    22  C   -0.000000  -0.000000   0.000000  -0.000000  -0.000006  -0.000110
    23  C    0.000000  -0.000000  -0.000000   0.000000   0.000000   0.000018
    24  C   -0.000000   0.000000   0.000000  -0.000000   0.000048   0.000112
    25  C   -0.000000  -0.000000   0.000003  -0.000279   0.000683   0.001187
    26  C   -0.000000  -0.000000   0.000001  -0.000096  -0.001358  -0.036574
    27  C    0.000000   0.000005   0.000616  -0.035948  -0.070489   0.537454
    28  C    0.000002  -0.000165   0.008605  -0.003956  -0.051698  -0.001954
    29  C   -0.000192   0.013125  -0.020646   0.443182  -0.106374  -0.036670
    30  H    0.003797   0.000822   0.002633  -0.000244   0.000001  -0.000000
    31  H   -0.039917   0.004471   0.000652   0.000001  -0.000000   0.000000
    32  H    0.360424  -0.037253   0.002665  -0.000169  -0.000002  -0.000000
    33  H   -0.045807   0.350697  -0.033998  -0.012635   0.004963   0.000084
    34  H    0.000036   0.004318  -0.010960  -0.035139   0.347095  -0.041158
    35  H   -0.000000  -0.000001  -0.000009  -0.000037   0.001082   0.012507
    36  H   -0.000000   0.000000   0.000000  -0.000000  -0.000001  -0.000000
    37  H    0.000000   0.000000  -0.000000   0.000000   0.000000  -0.000000
    38  H   -0.000000   0.000000  -0.000000   0.000000  -0.000000   0.000003
    39  H   -0.000000   0.000000  -0.000000   0.000000  -0.000000   0.000003
    40  H    0.000000   0.000000  -0.000000   0.000000   0.000000  -0.000000
    41  H   -0.000000   0.000000   0.000000  -0.000000  -0.000001  -0.000000
    42  H   -0.000000  -0.000001  -0.000009  -0.000037   0.001081   0.012507
    43  H    0.000000  -0.000000   0.000003   0.000317   0.005692  -0.035166
    44  H   -0.000000   0.000001  -0.000241   0.002441   0.000909   0.002666
              13         14         15         16         17         18
     1  O   -0.000000   0.000000  -0.000000  -0.000000   0.000000   0.000000
     2  S   -0.000004   0.000000   0.000000  -0.000000   0.000000   0.000000
     3  O   -0.000000  -0.000000   0.000000   0.000000  -0.000000  -0.000000
     4  C    0.000001   0.000000   0.000000   0.000000  -0.000000  -0.000000
     5  C    0.000000  -0.000000  -0.000000   0.000000  -0.000000  -0.000000
     6  C   -0.000000  -0.000000  -0.000000  -0.000000   0.000000   0.000000
     7  C   -0.000000  -0.000000  -0.000000  -0.000000   0.000000  -0.000000
     8  C    0.000002  -0.000000  -0.000000   0.000000  -0.000000  -0.000000
     9  C   -0.000145   0.000001   0.000003   0.000000  -0.000000   0.000000
    10  C    0.004500  -0.000096  -0.000280  -0.000000   0.000000  -0.000000
    11  C   -0.058734  -0.001361   0.000682   0.000048   0.000000  -0.000006
    12  C    0.251735  -0.036573   0.001187   0.000112   0.000018  -0.000110
    13  N    7.404438   0.234453  -0.078852   0.005520   0.000061   0.006065
    14  C    0.234453   4.700084   0.503556  -0.008017  -0.037640  -0.044754
    15  C   -0.078852   0.503556   5.054510   0.512488  -0.031498  -0.049289
    16  C    0.005520  -0.008017   0.512488   4.861787   0.550568  -0.025808
    17  C    0.000061  -0.037640  -0.031498   0.550568   4.866818   0.511186
    18  C    0.006065  -0.044754  -0.049289  -0.025808   0.511186   5.021035
    19  C   -0.050604   0.449030  -0.031452  -0.044174  -0.011320   0.532249
    20  O   -0.017369  -0.043649   0.004575  -0.000043   0.003410  -0.057959
    21  C   -0.050604  -0.011982   0.001123   0.000003  -0.000009  -0.000506
    22  C    0.006065   0.002057   0.000019  -0.000001   0.000006  -0.000708
    23  C    0.000061  -0.000049  -0.000000   0.000000  -0.000000   0.000006
    24  C    0.005520  -0.000070   0.000002  -0.000000   0.000000  -0.000001
    25  C   -0.078852   0.003278  -0.000300   0.000002  -0.000000   0.000019
    26  C    0.234453  -0.025733   0.003278  -0.000070  -0.000049   0.002057
    27  C   -0.063955  -0.001545   0.000363   0.000051  -0.000000  -0.000006
    28  C    0.005998  -0.000044  -0.000282  -0.000001   0.000000  -0.000000
    29  C    0.000620   0.000021  -0.000020  -0.000001   0.000000   0.000000
    30  H    0.000000  -0.000000  -0.000000  -0.000000   0.000000  -0.000000
    31  H   -0.000000   0.000000  -0.000000  -0.000000   0.000000   0.000000
    32  H    0.000000   0.000000  -0.000000  -0.000000   0.000000  -0.000000
    33  H   -0.000001  -0.000000  -0.000000   0.000000   0.000000   0.000000
    34  H   -0.003055   0.000970   0.000165  -0.000005   0.000001  -0.000001
    35  H   -0.013291  -0.036033   0.347041  -0.039089   0.004472   0.000470
    36  H   -0.000092   0.003516  -0.039216   0.359781  -0.040677   0.004379
    37  H    0.000003   0.000587   0.004913  -0.041337   0.361296  -0.040310
    38  H   -0.000090   0.006264   0.000343   0.004790  -0.041085   0.345685
    39  H   -0.000090  -0.000012  -0.000001   0.000000   0.000000   0.000004
    40  H    0.000003   0.000001   0.000000  -0.000000   0.000000  -0.000000
    41  H   -0.000092   0.000001  -0.000000   0.000000  -0.000000   0.000000
    42  H   -0.013291  -0.000136  -0.000002  -0.000000   0.000000   0.000000
    43  H   -0.005007   0.001071   0.000203  -0.000009   0.000001  -0.000001
    44  H   -0.000111  -0.000000   0.000002  -0.000000  -0.000000   0.000000
              19         20         21         22         23         24
     1  O   -0.000000   0.000000   0.000000  -0.000000  -0.000000   0.000000
     2  S    0.000000  -0.000000   0.000000   0.000000   0.000000  -0.000000
     3  O    0.000000   0.000000  -0.000000   0.000000   0.000000  -0.000000
     4  C    0.000000   0.000000   0.000000  -0.000000  -0.000000   0.000000
     5  C    0.000000  -0.000000   0.000000  -0.000000  -0.000000   0.000000
     6  C   -0.000000   0.000000  -0.000000   0.000000   0.000000  -0.000000
     7  C   -0.000000   0.000000  -0.000000  -0.000000   0.000000  -0.000000
     8  C   -0.000000  -0.000000  -0.000000  -0.000000  -0.000000   0.000000
     9  C   -0.000000   0.000000  -0.000000   0.000000  -0.000000   0.000000
    10  C   -0.000002  -0.000000  -0.000002  -0.000000   0.000000  -0.000000
    11  C   -0.000203   0.000002  -0.000203  -0.000006   0.000000   0.000048
    12  C    0.004032  -0.000266   0.004032  -0.000110   0.000018   0.000112
    13  N   -0.050604  -0.017369  -0.050604   0.006065   0.000061   0.005520
    14  C    0.449030  -0.043649  -0.011982   0.002057  -0.000049  -0.000070
[...]
    17  C   -0.011320   0.003410  -0.000009   0.000006  -0.000000   0.000000
    18  C    0.532249  -0.057959  -0.000506  -0.000708   0.000006  -0.000001
    19  C    4.642891   0.233486  -0.009309  -0.000506  -0.000009   0.000003
    20  O    0.233486   8.321927   0.233486  -0.057959   0.003410  -0.000043
    21  C   -0.009309   0.233486   4.642891   0.532249  -0.011320  -0.044174
    22  C   -0.000506  -0.057959   0.532249   5.021035   0.511186  -0.025807
    23  C   -0.000009   0.003410  -0.011320   0.511186   4.866817   0.550568
    24  C    0.000003  -0.000043  -0.044174  -0.025807   0.550568   4.861788
    25  C    0.001123   0.004575  -0.031452  -0.049289  -0.031498   0.512487
    26  C   -0.011982  -0.043649   0.449030  -0.044754  -0.037640  -0.008017
    27  C   -0.000145  -0.000000  -0.000145  -0.000006  -0.000000   0.000051
    28  C    0.000003  -0.000000   0.000003  -0.000000   0.000000  -0.000001
    29  C   -0.000000  -0.000000  -0.000000   0.000000   0.000000  -0.000001
    30  H    0.000000  -0.000000   0.000000  -0.000000   0.000000  -0.000000
    31  H    0.000000   0.000000   0.000000   0.000000   0.000000  -0.000000
    32  H   -0.000000   0.000000  -0.000000  -0.000000   0.000000  -0.000000
    33  H   -0.000000   0.000000  -0.000000   0.000000   0.000000   0.000000
    34  H   -0.000075   0.000000  -0.000074  -0.000001   0.000001  -0.000005
    35  H    0.004892  -0.000046  -0.000008   0.000000   0.000000  -0.000000
    36  H    0.000925   0.000001   0.000000   0.000000  -0.000000   0.000000
    37  H    0.003860  -0.000051  -0.000000  -0.000000   0.000000  -0.000000
    38  H   -0.035036  -0.000857   0.000210   0.000004   0.000000   0.000000
    39  H    0.000210  -0.000857  -0.035036   0.345685  -0.041085   0.004790
    40  H   -0.000000  -0.000051   0.003860  -0.040310   0.361296  -0.041337
    41  H    0.000000   0.000001   0.000925   0.004379  -0.040677   0.359781
    42  H   -0.000008  -0.000046   0.004892   0.000470   0.004472  -0.039089
    43  H   -0.000078  -0.000000  -0.000078  -0.000001   0.000001  -0.000009
    44  H   -0.000000  -0.000000  -0.000000   0.000000  -0.000000  -0.000000
              25         26         27         28         29         30
     1  O    0.000000  -0.000000   0.000027  -0.000211  -0.056872   0.000398
     2  S    0.000000   0.000000   0.003238  -0.041190   0.075858  -0.000692
     3  O   -0.000000   0.000000   0.000027  -0.000212  -0.056872   0.000398
     4  C    0.000000   0.000000  -0.000198   0.005659  -0.060323  -0.037593
     5  C   -0.000000  -0.000000   0.000001  -0.000051   0.005484   0.362061
     6  C   -0.000000  -0.000000  -0.000000   0.000001  -0.000175  -0.036948
     7  C   -0.000000  -0.000000   0.000000   0.000002  -0.000192   0.003797
     8  C   -0.000000  -0.000000   0.000005  -0.000165   0.013125   0.000822
     9  C    0.000003   0.000001   0.000616   0.008605  -0.020646   0.002633
    10  C   -0.000279  -0.000096  -0.035948  -0.003956   0.443182  -0.000244
    11  C    0.000683  -0.001358  -0.070489  -0.051698  -0.106374   0.000001
    12  C    0.001187  -0.036574   0.537454  -0.001954  -0.036670  -0.000000
    13  N   -0.078852   0.234453  -0.063955   0.005998   0.000620   0.000000
    14  C    0.003278  -0.025733  -0.001545  -0.000044   0.000021  -0.000000
    15  C   -0.000300   0.003278   0.000363  -0.000282  -0.000020  -0.000000
    16  C    0.000002  -0.000070   0.000051  -0.000001  -0.000001  -0.000000
    17  C   -0.000000  -0.000049  -0.000000   0.000000   0.000000   0.000000
    18  C    0.000019   0.002057  -0.000006  -0.000000   0.000000  -0.000000
    19  C    0.001123  -0.011982  -0.000145   0.000003  -0.000000   0.000000
    20  O    0.004575  -0.043649  -0.000000  -0.000000  -0.000000  -0.000000
    21  C   -0.031452   0.449030  -0.000145   0.000003  -0.000000   0.000000
    22  C   -0.049289  -0.044754  -0.000006  -0.000000   0.000000  -0.000000
    23  C   -0.031498  -0.037640  -0.000000   0.000000   0.000000   0.000000
    24  C    0.512487  -0.008017   0.000051  -0.000001  -0.000001  -0.000000
    25  C    5.054510   0.503556   0.000361  -0.000282  -0.000020  -0.000000
    26  C    0.503556   4.700085  -0.001548  -0.000044   0.000021  -0.000000
    27  C    0.000361  -0.001548   4.972989   0.473268  -0.039122  -0.000000
    28  C   -0.000282  -0.000044   0.473268   4.995549   0.477595   0.000001
    29  C   -0.000020   0.000021  -0.039122   0.477595   5.595485   0.000184
    30  H   -0.000000  -0.000000  -0.000000   0.000001   0.000184   0.533585
    31  H   -0.000000   0.000000   0.000000  -0.000000  -0.000000  -0.004612
    32  H   -0.000000   0.000000  -0.000000  -0.000000   0.000004  -0.000150
    33  H   -0.000000  -0.000000   0.000003   0.000001  -0.000195   0.000016
    34  H    0.000165   0.000969   0.005480  -0.000075   0.007129   0.000000
    35  H   -0.000002  -0.000136   0.001389   0.000114   0.000057  -0.000000
    36  H   -0.000000   0.000001  -0.000001  -0.000000  -0.000000   0.000000
    37  H    0.000000   0.000001   0.000000   0.000000  -0.000000   0.000000
    38  H   -0.000001  -0.000012  -0.000000   0.000000   0.000000   0.000000
    39  H    0.000343   0.006264  -0.000000   0.000000   0.000000   0.000000
    40  H    0.004913   0.000587   0.000000   0.000000  -0.000000   0.000000
    41  H   -0.039216   0.003516  -0.000001  -0.000000  -0.000000   0.000000
    42  H    0.347041  -0.036033   0.001390   0.000114   0.000057  -0.000000
    43  H    0.000203   0.001072   0.359731  -0.041950   0.004743  -0.000000
    44  H    0.000002  -0.000000  -0.031105   0.359126  -0.036724   0.000000
              31         32         33         34         35         36
     1  O    0.000001  -0.000000   0.000000   0.000000   0.000000  -0.000000
     2  S    0.000010   0.000002  -0.000067  -0.000037   0.000002  -0.000000
     3  O    0.000001  -0.000000   0.000000   0.000000   0.000000   0.000000
     4  C    0.004827   0.000795   0.007547  -0.000151  -0.000000   0.000000
     5  C   -0.041655   0.004579   0.000279   0.000001  -0.000000  -0.000000
     6  C    0.364207  -0.039302   0.004145   0.000001   0.000000  -0.000000
     7  C   -0.039917   0.360424  -0.045807   0.000036  -0.000000  -0.000000
     8  C    0.004471  -0.037253   0.350697   0.004318  -0.000001   0.000000
     9  C    0.000652   0.002665  -0.033998  -0.010960  -0.000009   0.000000
    10  C    0.000001  -0.000169  -0.012635  -0.035139  -0.000037  -0.000000
    11  C   -0.000000  -0.000002   0.004963   0.347095   0.001082  -0.000001
    12  C    0.000000  -0.000000   0.000084  -0.041158   0.012507  -0.000000
    13  N   -0.000000   0.000000  -0.000001  -0.003055  -0.013291  -0.000092
    14  C    0.000000   0.000000  -0.000000   0.000970  -0.036033   0.003516
    15  C   -0.000000  -0.000000  -0.000000   0.000165   0.347041  -0.039216
    16  C   -0.000000  -0.000000   0.000000  -0.000005  -0.039089   0.359781
    17  C    0.000000   0.000000   0.000000   0.000001   0.004472  -0.040677
    18  C    0.000000  -0.000000   0.000000  -0.000001   0.000470   0.004379
    19  C    0.000000  -0.000000  -0.000000  -0.000075   0.004892   0.000925
    20  O    0.000000   0.000000   0.000000   0.000000  -0.000046   0.000001
    21  C    0.000000  -0.000000  -0.000000  -0.000074  -0.000008   0.000000
    22  C    0.000000  -0.000000   0.000000  -0.000001   0.000000   0.000000
    23  C    0.000000   0.000000   0.000000   0.000001   0.000000  -0.000000
    24  C   -0.000000  -0.000000   0.000000  -0.000005  -0.000000   0.000000
    25  C   -0.000000  -0.000000  -0.000000   0.000165  -0.000002  -0.000000
    26  C    0.000000   0.000000  -0.000000   0.000969  -0.000136   0.000001
    27  C    0.000000  -0.000000   0.000003   0.005480   0.001389  -0.000001
    28  C   -0.000000  -0.000000   0.000001  -0.000075   0.000114  -0.000000
    29  C   -0.000000   0.000004  -0.000195   0.007129   0.000057  -0.000000
    30  H   -0.004612  -0.000150   0.000016   0.000000  -0.000000   0.000000
    31  H    0.565968  -0.005041  -0.000157  -0.000000   0.000000   0.000000
    32  H   -0.005041   0.568274  -0.004683   0.000001   0.000000   0.000000
    33  H   -0.000157  -0.004683   0.577990   0.002738  -0.000000   0.000000
    34  H   -0.000000   0.000001   0.002738   0.563044   0.000039  -0.000000
    35  H    0.000000   0.000000  -0.000000   0.000039   0.578256  -0.005456
    36  H    0.000000   0.000000   0.000000  -0.000000  -0.005456   0.590423
    37  H   -0.000000  -0.000000   0.000000  -0.000000  -0.000181  -0.005230
    38  H   -0.000000   0.000000   0.000000  -0.000000   0.000014  -0.000169
    39  H   -0.000000   0.000000   0.000000  -0.000000   0.000000   0.000000
    40  H   -0.000000  -0.000000   0.000000  -0.000000  -0.000000   0.000000
    41  H    0.000000   0.000000   0.000000  -0.000000  -0.000000  -0.000000
    42  H    0.000000   0.000000  -0.000000   0.000039   0.000002  -0.000000
    43  H   -0.000000  -0.000000  -0.000000  -0.000147   0.000025  -0.000000
    44  H   -0.000000   0.000000   0.000000   0.000017  -0.000002  -0.000000
              37         38         39         40         41         42
     1  O   -0.000000  -0.000000   0.000000   0.000000   0.000000   0.000000
     2  S   -0.000000   0.000000   0.000000  -0.000000  -0.000000   0.000002
     3  O    0.000000   0.000000  -0.000000  -0.000000  -0.000000   0.000000
     4  C   -0.000000   0.000000   0.000000  -0.000000   0.000000  -0.000000
     5  C    0.000000  -0.000000  -0.000000   0.000000  -0.000000  -0.000000
     6  C    0.000000  -0.000000  -0.000000   0.000000  -0.000000   0.000000
     7  C    0.000000  -0.000000  -0.000000   0.000000  -0.000000  -0.000000
     8  C    0.000000   0.000000   0.000000   0.000000   0.000000  -0.000001
     9  C   -0.000000  -0.000000  -0.000000  -0.000000   0.000000  -0.000009
    10  C    0.000000   0.000000   0.000000   0.000000  -0.000000  -0.000037
    11  C    0.000000  -0.000000  -0.000000   0.000000  -0.000001   0.001081
    12  C   -0.000000   0.000003   0.000003  -0.000000  -0.000000   0.012507
    13  N    0.000003  -0.000090  -0.000090   0.000003  -0.000092  -0.013291
    14  C    0.000587   0.006264  -0.000012   0.000001   0.000001  -0.000136
    15  C    0.004913   0.000343  -0.000001   0.000000  -0.000000  -0.000002
    16  C   -0.041337   0.004790   0.000000  -0.000000   0.000000  -0.000000
    17  C    0.361296  -0.041085   0.000000   0.000000  -0.000000   0.000000
    18  C   -0.040310   0.345685   0.000004  -0.000000   0.000000   0.000000
    19  C    0.003860  -0.035036   0.000210  -0.000000   0.000000  -0.000008
    20  O   -0.000051  -0.000857  -0.000857  -0.000051   0.000001  -0.000046
    21  C   -0.000000   0.000210  -0.035036   0.003860   0.000925   0.004892
    22  C   -0.000000   0.000004   0.345685  -0.040310   0.004379   0.000470
    23  C    0.000000   0.000000  -0.041085   0.361296  -0.040677   0.004472
    24  C   -0.000000   0.000000   0.004790  -0.041337   0.359781  -0.039089
    25  C    0.000000  -0.000001   0.000343   0.004913  -0.039216   0.347041
    26  C    0.000001  -0.000012   0.006264   0.000587   0.003516  -0.036033
    27  C    0.000000  -0.000000  -0.000000   0.000000  -0.000001   0.001390
    28  C    0.000000   0.000000   0.000000   0.000000  -0.000000   0.000114
    29  C   -0.000000   0.000000   0.000000  -0.000000  -0.000000   0.000057
    30  H    0.000000   0.000000   0.000000   0.000000   0.000000  -0.000000
    31  H   -0.000000  -0.000000  -0.000000  -0.000000   0.000000   0.000000
    32  H   -0.000000   0.000000   0.000000  -0.000000   0.000000   0.000000
    33  H    0.000000   0.000000   0.000000   0.000000   0.000000  -0.000000
    34  H   -0.000000  -0.000000  -0.000000  -0.000000  -0.000000   0.000039
    35  H   -0.000181   0.000014   0.000000  -0.000000  -0.000000   0.000002
    36  H   -0.005230  -0.000169   0.000000   0.000000  -0.000000  -0.000000
    37  H    0.591070  -0.005705  -0.000000  -0.000000   0.000000  -0.000000
    38  H   -0.005705   0.581173   0.000026  -0.000000   0.000000   0.000000
    39  H   -0.000000   0.000026   0.581173  -0.005705  -0.000169   0.000014
    40  H   -0.000000  -0.000000  -0.005705   0.591070  -0.005230  -0.000181
    41  H    0.000000   0.000000  -0.000169  -0.005230   0.590423  -0.005456
    42  H   -0.000000   0.000000   0.000014  -0.000181  -0.005456   0.578255
    43  H    0.000000  -0.000000  -0.000000   0.000000  -0.000000   0.000025
    44  H    0.000000  -0.000000  -0.000000   0.000000  -0.000000  -0.000002
              43         44
     1  O    0.000001   0.000412
     2  S    0.000020  -0.000435
     3  O    0.000001   0.000411
     4  C   -0.000000   0.000186
     5  C   -0.000000   0.000001
     6  C    0.000000  -0.000000
     7  C    0.000000  -0.000000
     8  C   -0.000000   0.000001
     9  C    0.000003  -0.000241
    10  C    0.000317   0.002441
    11  C    0.005692   0.000909
    12  C   -0.035166   0.002666
    13  N   -0.005007  -0.000111
    14  C    0.001071  -0.000000
    15  C    0.000203   0.000002
    16  C   -0.000009  -0.000000
    17  C    0.000001  -0.000000
    18  C   -0.000001   0.000000
    19  C   -0.000078  -0.000000
    20  O   -0.000000  -0.000000
    21  C   -0.000078  -0.000000
    22  C   -0.000001   0.000000
    23  C    0.000001  -0.000000
    24  C   -0.000009  -0.000000
    25  C    0.000203   0.000002
    26  C    0.001072  -0.000000
    27  C    0.359731  -0.031105
    28  C   -0.041950   0.359126
    29  C    0.004743  -0.036724
    30  H   -0.000000   0.000000
    31  H   -0.000000  -0.000000
    32  H   -0.000000   0.000000
    33  H   -0.000000   0.000000
    34  H   -0.000147   0.000017
    35  H    0.000025  -0.000002
    36  H   -0.000000  -0.000000
    37  H    0.000000   0.000000
    38  H   -0.000000  -0.000000
    39  H   -0.000000  -0.000000
    40  H    0.000000   0.000000
    41  H   -0.000000  -0.000000
    42  H    0.000025  -0.000002
    43  H    0.549256  -0.004346
    44  H   -0.004346   0.525616
 Mulliken charges:
               1
     1  O   -0.500536
     2  S    1.141068
     3  O   -0.500538
     4  C   -0.216321
     5  C   -0.169310
     6  C   -0.114287
     7  C   -0.133150
     8  C   -0.165702
     9  C    0.124697
    10  C    0.118158
    11  C   -0.172242
    12  C    0.195805
    13  N   -0.725261
    14  C    0.342808
    15  C   -0.203259
    16  C   -0.136594
    17  C   -0.135559
    18  C   -0.203695
    19  C    0.322200
    20  O   -0.582027
    21  C    0.322200
    22  C   -0.203696
    23  C   -0.135558
    24  C   -0.136595
    25  C   -0.203258
    26  C    0.342808
    27  C   -0.112229
    28  C   -0.183922
    29  C   -0.209359
    30  H    0.176342
    31  H    0.151243
    32  H    0.149856
    33  H    0.149080
    34  H    0.158673
    35  H    0.143929
    36  H    0.131817
    37  H    0.131085
    38  H    0.144446
    39  H    0.144445
    40  H    0.131085
    41  H    0.131817
    42  H    0.143930
    43  H    0.164430
    44  H    0.181177
 Sum of Mulliken charges =  -0.00000
 Mulliken charges with hydrogens summed into heavy atoms:
               1
     1  O   -0.500536
     2  S    1.141068
     3  O   -0.500538
     4  C   -0.216321
     5  C    0.007032
     6  C    0.036956
     7  C    0.016706
     8  C   -0.016621
     9  C    0.124697
    10  C    0.118158
    11  C   -0.013569
    12  C    0.195805
    13  N   -0.725261
    14  C    0.342808
    15  C   -0.059329
    16  C   -0.004778
    17  C   -0.004474
    18  C   -0.059250
    19  C    0.322200
    20  O   -0.582027
    21  C    0.322200
    22  C   -0.059250
    23  C   -0.004473
    24  C   -0.004778
    25  C   -0.059329
    26  C    0.342808
    27  C    0.052201
    28  C   -0.002745
    29  C   -0.209359
 Electronic spatial extent (au):  <R**2>=          13126.9805
 Charge=              0.0000 electrons
 Dipole moment (field-independent basis, Debye):
    X=              1.1401    Y=             -0.0013    Z=              3.9589  Tot=              4.1198
 Quadrupole moment (field-independent basis, Debye-Ang):
   XX=           -175.5087   YY=           -169.5161   ZZ=           -165.4896
   XY=              0.0081   XZ=            -23.3586   YZ=             -0.0031
 Traceless Quadrupole moment (field-independent basis, Debye-Ang):
   XX=             -5.3372   YY=              0.6554   ZZ=              4.6818
   XY=              0.0081   XZ=            -23.3586   YZ=             -0.0031
 Octapole moment (field-independent basis, Debye-Ang**2):
  XXX=            -15.6547  YYY=             -0.0046  ZZZ=             14.3187  XYY=             58.8368
  XXY=             -0.0388  XXZ=            130.6656  XZZ=            -23.2503  YZZ=             -0.0031
  YYZ=              2.4527  XYZ=              0.0192
 Hexadecapole moment (field-independent basis, Debye-Ang**3):
 XXXX=         -11915.3868 YYYY=          -2951.3757 ZZZZ=          -1727.3628 XXXY=              0.1737
 XXXZ=           -470.9854 YYYX=             -0.0150 YYYZ=              0.1105 ZZZX=           -136.0472
 ZZZY=             -0.1419 XXYY=          -2617.1505 XXZZ=          -2473.8314 YYZZ=           -948.0955
 XXYZ=             -0.0070 YYXZ=             27.8586 ZZXY=              0.0528
 N-N= 2.721507680775D+03 E-N=-9.183655570940D+03  KE= 1.589307629656D+03
 1\1\GINC-CNODE13\SP\RB3LYP TD-FC\6-31G(d)\C24H15N1O3S1\JUNHKIM\19-Jan-
 2026\0\\# b3lyp/6-31g* TD=(Nstates=1,50-50) Geom=Check Guess=Read SCF=
 XQC\\TD-DFT calculation\\0,1\O,0,4.5293140413,0.4633528625,-2.64599459
 4\S,0,3.9969800343,1.2825622532,-1.547696474\O,0,4.2445872301,2.731506
 2171,-1.5464652694\C,0,4.4173343675,0.561906214,0.0477661122\C,0,5.690
 3584746,0.4603408552,0.5869106556\C,0,5.8207517197,-0.1338444556,1.846
 4204423\C,0,4.6922588997,-0.6044548891,2.5250434519\C,0,3.4168241244,-
 0.4932670171,1.9654232944\C,0,3.2713291739,0.0977209842,0.7085988685\C
 ,0,2.0282557387,0.3151895391,-0.0618912566\C,0,0.7217633764,-0.0220420
 752,0.2954863679\C,0,-0.3301218455,0.2709972295,-0.5813890251\N,0,-1.6
 670492975,-0.0751916706,-0.2134120503\C,0,-2.4800147441,0.854744921,0.
 4700103133\C,0,-2.0367005172,2.1325426595,0.8266647454\C,0,-2.87829541
 55,3.017341586,1.5087270822\C,0,-4.1746134918,2.6391638943,1.842298290
 6\C,0,-4.6296568256,1.364808766,1.4894897794\C,0,-3.7937597391,0.48663
 59977,0.8151756759\O,0,-4.3101494647,-0.7573552639,0.5094206444\C,0,-3
 .5274558968,-1.6357774943,-0.2140576965\C,0,-4.1005412653,-2.852173636
 6,-0.5554738096\C,0,-3.3669713582,-3.7975782125,-1.2790792101\C,0,-2.0
 598575091,-3.5053740521,-1.6543106688\C,0,-1.4833013427,-2.2778584922,
 -1.3120405494\C,0,-2.2065083803,-1.3250516664,-0.587040998\C,0,-0.0844
 760624,0.8978282699,-1.8108791638\C,0,1.2194020393,1.2403593449,-2.179
 882826\C,0,2.2454919149,0.9412509453,-1.2971564382\H,0,6.5567178025,0.
 8305698611,0.0474846908\H,0,6.8037677378,-0.2292163607,2.2976964209\H,
 0,4.80680803,-1.0639252156,3.5025465998\H,0,2.5509513736,-0.8640849043
 ,2.5061814655\H,0,0.4996415796,-0.507969114,1.2403854575\H,0,-1.028588
 7817,2.4385450162,0.5706282136\H,0,-2.5063015735,4.0028082775,1.773089
 2673\H,0,-4.8337345674,3.3207485656,2.3710475358\H,0,-5.6339509563,1.0
 310307862,1.7309886579\H,0,-5.1230256337,-3.041004669,-0.2436971492\H,
 0,-3.8213312059,-4.7479226758,-1.5417132383\H,0,-1.4738021279,-4.22586
 88329,-2.2171940032\H,0,-0.464075317,-2.0603647805,-1.6109659338\H,0,-
 0.9198535471,1.112311872,-2.469634645\H,0,1.4216022079,1.72605856,-3.1
 294880337\\Version=ES64L-G16RevB.01\State=1-A\HF=-1602.1297519\RMSD=3.
 658e-09\PG=C01 [X(C24H15N1O3S1)]\\@


 Discoveries are often made by not following instructions,
 by going off the main road, by trying the untried.
 -- Frank Tyger
 Job cpu time:       0 days  0 hours 42 minutes 45.1 seconds.
 Elapsed time:       0 days  0 hours  2 minutes 40.5 seconds.
 File lengths (MBytes):  RWF=   1133 Int=      0 D2E=      0 Chk=     67 Scr=      2
 Normal termination of Gaussian 16 at Mon Jan 19 15:03:19 2026.
