 Entering Gaussian System, Link 0=g16
 Initial command:
 /appl/Gaussian16/AVX_revB01/g16/l1.exe "/home/junhkim/WORK/Review_DD/TADF-Design/data/td_dft/results/mol_383/Gau-1372210.inp" -scrdir="/home/junhkim/WORK/Review_DD/TADF-Design/data/td_dft/results/mol_383/"
 Entering Link 1 = /appl/Gaussian16/AVX_revB01/g16/l1.exe PID=   1372212.
  
 Copyright (c) 1988-2017, Gaussian, Inc.  All Rights Reserved.
  
 This is part of the Gaussian(R) 16 program.  It is based on
 the Gaussian(R) 09 system (copyright 2009, Gaussian, Inc.),
 the Gaussian(R) 03 system (copyright 2003, Gaussian, Inc.),
 the Gaussian(R) 98 system (copyright 1998, Gaussian, Inc.),
 the Gaussian(R) 94 system (copyright 1995, Gaussian, Inc.),
 the Gaussian 92(TM) system (copyright 1992, Gaussian, Inc.),
 the Gaussian 90(TM) system (copyright 1990, Gaussian, Inc.),
 the Gaussian 88(TM) system (copyright 1988, Gaussian, Inc.),
 the Gaussian 86(TM) system (copyright 1986, Carnegie Mellon
 University), and the Gaussian 82(TM) system (copyright 1983,
 Carnegie Mellon University). Gaussian is a federally registered
 trademark of Gaussian, Inc.
  
 This software contains proprietary and confidential information,
 including trade secrets, belonging to Gaussian, Inc.
  
 This software is provided under written license and may be
 used, copied, transmitted, or stored only in accord with that
 written license.
  
 The following legend is applicable only to US Government
 contracts under FAR:
  
                    RESTRICTED RIGHTS LEGEND
  
 Use, reproduction and disclosure by the US Government is
 subject to restrictions as set forth in subparagraphs (a)
 and (c) of the Commercial Computer Software - Restricted
 Rights clause in FAR 52.227-19.
  
 Gaussian, Inc.
 340 Quinnipiac St., Bldg. 40, Wallingford CT 06492
  
  
 ---------------------------------------------------------------
 Warning -- This program may not be used in any manner that
 competes with the business of Gaussian, Inc. or will provide
 assistance to any competitor of Gaussian, Inc.  The licensee
 of this program is prohibited from giving any competitor of
 Gaussian, Inc. access to this program.  By using this program,
 the user acknowledges that Gaussian, Inc. is engaged in the
 business of creating and licensing software in the field of
 computational chemistry and represents and warrants to the
 licensee that it is not a competitor of Gaussian, Inc. and that
 it will not use this program in any manner prohibited above.
 ---------------------------------------------------------------
  

 Cite this work as:
 Gaussian 16, Revision B.01,
 M. J. Frisch, G. W. Trucks, H. B. Schlegel, G. E. Scuseria, 
 M. A. Robb, J. R. Cheeseman, G. Scalmani, V. Barone, 
 G. A. Petersson, H. Nakatsuji, X. Li, M. Caricato, A. V. Marenich, 
 J. Bloino, B. G. Janesko, R. Gomperts, B. Mennucci, H. P. Hratchian, 
 J. V. Ortiz, A. F. Izmaylov, J. L. Sonnenberg, D. Williams-Young, 
 F. Ding, F. Lipparini, F. Egidi, J. Goings, B. Peng, A. Petrone, 
 T. Henderson, D. Ranasinghe, V. G. Zakrzewski, J. Gao, N. Rega, 
 G. Zheng, W. Liang, M. Hada, M. Ehara, K. Toyota, R. Fukuda, 
 J. Hasegawa, M. Ishida, T. Nakajima, Y. Honda, O. Kitao, H. Nakai, 
 T. Vreven, K. Throssell, J. A. Montgomery, Jr., J. E. Peralta, 
 F. Ogliaro, M. J. Bearpark, J. J. Heyd, E. N. Brothers, K. N. Kudin, 
 V. N. Staroverov, T. A. Keith, R. Kobayashi, J. Normand, 
 K. Raghavachari, A. P. Rendell, J. C. Burant, S. S. Iyengar, 
 J. Tomasi, M. Cossi, J. M. Millam, M. Klene, C. Adamo, R. Cammi, 
 J. W. Ochterski, R. L. Martin, K. Morokuma, O. Farkas, 
 J. B. Foresman, and D. J. Fox, Gaussian, Inc., Wallingford CT, 2016.
 
 ******************************************
 Gaussian 16:  ES64L-G16RevB.01 20-Dec-2017
                18-Jan-2026 
 ******************************************
 %mem=60GB
 %chk=opt.chk
 %nprocshared=16
 Will use up to   16 processors via shared memory.
 ---------------------------
 #P b3lyp/6-31g* opt SCF=XQC
 ---------------------------
 1/18=20,19=15,26=3,38=1/1,3;
 2/9=110,12=2,17=6,18=5,40=1/2;
 3/5=1,6=6,7=1,11=2,25=1,30=1,71=1,74=-5/1,2,3;
 4//1;
 5/5=2,8=3,13=1,38=5/2,8;
 6/7=2,8=2,9=2,10=2,28=1/1;
 7//1,2,3,16;
 1/18=20,19=15,26=3/3(2);
 2/9=110/2;
 99//99;
 2/9=110/2;
 3/5=1,6=6,7=1,11=2,25=1,30=1,71=1,74=-5/1,2,3;
 4/5=5,16=3,69=1/1;
 5/5=2,8=3,13=1,38=5/2,8;
 7//1,2,3,16;
 1/18=20,19=15,26=3/3(-5);
 2/9=110/2;
 6/7=2,8=2,9=2,10=2,19=2,28=1/1;
 99/9=1/99;
 Leave Link    1 at Sun Jan 18 23:58:59 2026, MaxMem=  8053063680 cpu:               1.2 elap:               0.1
 (Enter /appl/Gaussian16/AVX_revB01/g16/l101.exe)
 ------------------------------
 Gaussian input prepared by ASE
 ------------------------------
 Symbolic Z-matrix:
 Charge =  0 Multiplicity = 1
 C                    -1.45168  -2.70566   0.4471 
 N                    -1.12893  -1.32159   0.23621 
 C                    -2.02158  -0.27783   0.11972 
 C                    -3.40708  -0.30192   0.17782 
 C                    -4.0848    0.89434   0.03122 
 C                    -3.39008   2.08458  -0.1685 
 Br                   -4.38667   3.69797  -0.36287 
 C                    -2.01062   2.13479  -0.23004 
 C                    -1.32426   0.93911  -0.08391 
 C                     0.07116   0.60096  -0.08963 
 N                     1.14857   1.32392  -0.23644 
 C                     2.31156   0.63706  -0.1826 
 C                     3.53188   1.32557  -0.33008 
 C                     4.6999    0.61534  -0.27303 
 C                     4.63467  -0.77576  -0.06918 
 N                     3.52736  -1.44837   0.07154 
 C                     2.36235  -0.78235   0.02086 
 N                     1.24059  -1.51705   0.17129 
 C                     0.13068  -0.8281    0.11499 
 H                    -1.99252  -2.83477   1.38692 
 H                    -2.06346  -3.08637  -0.3734 
 H                    -0.51335  -3.25544   0.48788 
 H                    -3.94799  -1.2219    0.33233 
 H                    -5.16303   0.91107   0.0713 
 H                    -1.47961   3.06003  -0.38497 
 H                     3.50496   2.39396  -0.48373 
 H                     5.65787   1.09989  -0.3807 
 H                     5.54409  -1.36147  -0.02009 
 
 ITRead=  0  0  0  0  0  0  0  0  0  0  0  0  0  0  0  0  0  0  0  0
 ITRead=  0  0  0  0  0  0  0  0
 MicOpt= -1 -1 -1 -1 -1 -1 -1 -1 -1 -1 -1 -1 -1 -1 -1 -1 -1 -1 -1 -1
 MicOpt= -1 -1 -1 -1 -1 -1 -1 -1
 NAtoms=     28 NQM=       28 NQMF=       0 NMMI=      0 NMMIF=      0
                NMic=       0 NMicF=      0.
                    Isotopes and Nuclear Properties:
 (Nuclear quadrupole moments (NQMom) in fm**2, nuclear magnetic moments (NMagM)
  in nuclear magnetons)

  Atom         1           2           3           4           5           6           7           8           9          10
 IAtWgt=          12          14          12          12          12          12          79          12          12          12
 AtmWgt=  12.0000000  14.0030740  12.0000000  12.0000000  12.0000000  12.0000000  78.9183361  12.0000000  12.0000000  12.0000000
 NucSpn=           0           2           0           0           0           0           3           0           0           0
 AtZEff=  -0.0000000  -0.0000000  -0.0000000  -0.0000000  -0.0000000  -0.0000000  -0.0000000  -0.0000000  -0.0000000  -0.0000000
 NQMom=    0.0000000   2.0440000   0.0000000   0.0000000   0.0000000   0.0000000  31.3000000   0.0000000   0.0000000   0.0000000
 NMagM=    0.0000000   0.4037610   0.0000000   0.0000000   0.0000000   0.0000000   2.1063990   0.0000000   0.0000000   0.0000000
 AtZNuc=   6.0000000   7.0000000   6.0000000   6.0000000   6.0000000   6.0000000  35.0000000   6.0000000   6.0000000   6.0000000

  Atom        11          12          13          14          15          16          17          18          19          20
 IAtWgt=          14          12          12          12          12          14          12          14          12           1
 AtmWgt=  14.0030740  12.0000000  12.0000000  12.0000000  12.0000000  14.0030740  12.0000000  14.0030740  12.0000000   1.0078250
 NucSpn=           2           0           0           0           0           2           0           2           0           1
 AtZEff=  -0.0000000  -0.0000000  -0.0000000  -0.0000000  -0.0000000  -0.0000000  -0.0000000  -0.0000000  -0.0000000  -0.0000000
 NQMom=    2.0440000   0.0000000   0.0000000   0.0000000   0.0000000   2.0440000   0.0000000   2.0440000   0.0000000   0.0000000
 NMagM=    0.4037610   0.0000000   0.0000000   0.0000000   0.0000000   0.4037610   0.0000000   0.4037610   0.0000000   2.7928460
 AtZNuc=   7.0000000   6.0000000   6.0000000   6.0000000   6.0000000   7.0000000   6.0000000   7.0000000   6.0000000   1.0000000

  Atom        21          22          23          24          25          26          27          28
 IAtWgt=           1           1           1           1           1           1           1           1
 AtmWgt=   1.0078250   1.0078250   1.0078250   1.0078250   1.0078250   1.0078250   1.0078250   1.0078250
 NucSpn=           1           1           1           1           1           1           1           1
 AtZEff=  -0.0000000  -0.0000000  -0.0000000  -0.0000000  -0.0000000  -0.0000000  -0.0000000  -0.0000000
 NQMom=    0.0000000   0.0000000   0.0000000   0.0000000   0.0000000   0.0000000   0.0000000   0.0000000
 NMagM=    2.7928460   2.7928460   2.7928460   2.7928460   2.7928460   2.7928460   2.7928460   2.7928460
 AtZNuc=   1.0000000   1.0000000   1.0000000   1.0000000   1.0000000   1.0000000   1.0000000   1.0000000
 Leave Link  101 at Sun Jan 18 23:59:00 2026, MaxMem=  8053063680 cpu:              10.2 elap:               0.6
 (Enter /appl/Gaussian16/AVX_revB01/g16/l103.exe)

 GradGradGradGradGradGradGradGradGradGradGradGradGradGradGradGradGradGrad
 Berny optimization.
 Initialization pass.
                           ----------------------------
                           !    Initial Parameters    !
                           ! (Angstroms and Degrees)  !
 --------------------------                            --------------------------
 ! Name  Definition              Value          Derivative Info.                !
 --------------------------------------------------------------------------------
 ! R1    R(1,2)                  1.4368         estimate D2E/DX2                !
 ! R2    R(1,20)                 1.092          estimate D2E/DX2                !
 ! R3    R(1,21)                 1.092          estimate D2E/DX2                !
 ! R4    R(1,22)                 1.0883         estimate D2E/DX2                !
 ! R5    R(2,3)                  1.3783         estimate D2E/DX2                !
 ! R6    R(2,19)                 1.3583         estimate D2E/DX2                !
 ! R7    R(3,4)                  1.3869         estimate D2E/DX2                !
 ! R8    R(3,9)                  1.4173         estimate D2E/DX2                !
 ! R9    R(4,5)                  1.3827         estimate D2E/DX2                !
 ! R10   R(4,23)                 1.0783         estimate D2E/DX2                !
 ! R11   R(5,6)                  1.3926         estimate D2E/DX2                !
 ! R12   R(5,24)                 1.0791         estimate D2E/DX2                !
 ! R13   R(6,7)                  1.9063         estimate D2E/DX2                !
 ! R14   R(6,8)                  1.3817         estimate D2E/DX2                !
 ! R15   R(8,9)                  1.3864         estimate D2E/DX2                !
 ! R16   R(8,25)                 1.078          estimate D2E/DX2                !
 ! R17   R(9,10)                 1.4358         estimate D2E/DX2                !
 ! R18   R(10,11)                1.3058         estimate D2E/DX2                !
 ! R19   R(10,19)                1.4449         estimate D2E/DX2                !
 ! R20   R(11,12)                1.3517         estimate D2E/DX2                !
 ! R21   R(12,13)                1.4089         estimate D2E/DX2                !
 ! R22   R(12,17)                1.4348         estimate D2E/DX2                !
 ! R23   R(13,14)                1.3682         estimate D2E/DX2                !
 ! R24   R(13,26)                1.0797         estimate D2E/DX2                !
 ! R25   R(14,15)                1.4075         estimate D2E/DX2                !
 ! R26   R(14,27)                1.0789         estimate D2E/DX2                !
 ! R27   R(15,16)                1.3032         estimate D2E/DX2                !
 ! R28   R(15,28)                1.0828         estimate D2E/DX2                !
 ! R29   R(16,17)                1.3429         estimate D2E/DX2                !
 ! R30   R(17,18)                1.3494         estimate D2E/DX2                !
 ! R31   R(18,19)                1.3076         estimate D2E/DX2                !
 ! A1    A(2,1,20)             110.5781         estimate D2E/DX2                !
 ! A2    A(2,1,21)             110.5736         estimate D2E/DX2                !
 ! A3    A(2,1,22)             107.365          estimate D2E/DX2                !
 ! A4    A(20,1,21)            109.1467         estimate D2E/DX2                !
 ! A5    A(20,1,22)            109.5761         estimate D2E/DX2                !
 ! A6    A(21,1,22)            109.577          estimate D2E/DX2                !
 ! A7    A(1,2,3)              126.6134         estimate D2E/DX2                !
 ! A8    A(1,2,19)             124.8494         estimate D2E/DX2                !
 ! A9    A(3,2,19)             108.5371         estimate D2E/DX2                !
 ! A10   A(2,3,4)              129.0694         estimate D2E/DX2                !
 ! A11   A(2,3,9)              110.1037         estimate D2E/DX2                !
 ! A12   A(4,3,9)              120.8269         estimate D2E/DX2                !
 ! A13   A(3,4,5)              118.0455         estimate D2E/DX2                !
 ! A14   A(3,4,23)             121.4609         estimate D2E/DX2                !
 ! A15   A(5,4,23)             120.4935         estimate D2E/DX2                !
 ! A16   A(4,5,6)              120.6739         estimate D2E/DX2                !
 ! A17   A(4,5,24)             119.9489         estimate D2E/DX2                !
 ! A18   A(6,5,24)             119.3772         estimate D2E/DX2                !
 ! A19   A(5,6,7)              118.5025         estimate D2E/DX2                !
 ! A20   A(5,6,8)              122.3783         estimate D2E/DX2                !
 ! A21   A(7,6,8)              119.1192         estimate D2E/DX2                !
 ! A22   A(6,8,9)              117.2723         estimate D2E/DX2                !
 ! A23   A(6,8,25)             121.9631         estimate D2E/DX2                !
 ! A24   A(9,8,25)             120.7646         estimate D2E/DX2                !
 ! A25   A(3,9,8)              120.8031         estimate D2E/DX2                !
 ! A26   A(3,9,10)             106.053          estimate D2E/DX2                !
 ! A27   A(8,9,10)             133.1439         estimate D2E/DX2                !
 ! A28   A(9,10,11)            132.2184         estimate D2E/DX2                !
 ! A29   A(9,10,19)            105.8076         estimate D2E/DX2                !
 ! A30   A(11,10,19)           121.9741         estimate D2E/DX2                !
 ! A31   A(10,11,12)           115.0931         estimate D2E/DX2                !
 ! A32   A(11,12,13)           119.5193         estimate D2E/DX2                !
 ! A33   A(11,12,17)           122.6002         estimate D2E/DX2                !
 ! A34   A(13,12,17)           117.8805         estimate D2E/DX2                !
 ! A35   A(12,13,14)           118.7759         estimate D2E/DX2                !
 ! A36   A(12,13,26)           118.4808         estimate D2E/DX2                !
 ! A37   A(14,13,26)           122.7432         estimate D2E/DX2                !
 ! A38   A(13,14,15)           118.6555         estimate D2E/DX2                !
 ! A39   A(13,14,27)           121.3794         estimate D2E/DX2                !
 ! A40   A(15,14,27)           119.9651         estimate D2E/DX2                !
 ! A41   A(14,15,16)           124.4113         estimate D2E/DX2                !
 ! A42   A(14,15,28)           120.1499         estimate D2E/DX2                !
 ! A43   A(16,15,28)           115.4387         estimate D2E/DX2                !
 ! A44   A(15,16,17)           118.4946         estimate D2E/DX2                !
 ! A45   A(12,17,16)           121.7821         estimate D2E/DX2                !
 ! A46   A(12,17,18)           121.6695         estimate D2E/DX2                !
 ! A47   A(16,17,18)           116.5483         estimate D2E/DX2                !
 ! A48   A(17,18,19)           114.455          estimate D2E/DX2                !
 ! A49   A(2,19,10)            109.4986         estimate D2E/DX2                !
 ! A50   A(2,19,18)            126.2933         estimate D2E/DX2                !
 ! A51   A(10,19,18)           124.2081         estimate D2E/DX2                !
 ! D1    D(20,1,2,3)           -60.6685         estimate D2E/DX2                !
 ! D2    D(20,1,2,19)          119.4917         estimate D2E/DX2                !
 ! D3    D(21,1,2,3)            60.3376         estimate D2E/DX2                !
 ! D4    D(21,1,2,19)         -119.5023         estimate D2E/DX2                !
 ! D5    D(22,1,2,3)           179.8339         estimate D2E/DX2                !
 ! D6    D(22,1,2,19)           -0.006          estimate D2E/DX2                !
 ! D7    D(1,2,3,4)              0.1442         estimate D2E/DX2                !
 ! D8    D(1,2,3,9)           -179.8848         estimate D2E/DX2                !
 ! D9    D(19,2,3,4)          -179.9944         estimate D2E/DX2                !
 ! D10   D(19,2,3,9)            -0.0234         estimate D2E/DX2                !
 ! D11   D(1,2,19,10)          179.8893         estimate D2E/DX2                !
 ! D12   D(1,2,19,18)           -0.1295         estimate D2E/DX2                !
 ! D13   D(3,2,19,10)            0.0248         estimate D2E/DX2                !
 ! D14   D(3,2,19,18)         -179.9939         estimate D2E/DX2                !
 ! D15   D(2,3,4,5)            179.9757         estimate D2E/DX2                !
 ! D16   D(2,3,4,23)            -0.0293         estimate D2E/DX2                !
 ! D17   D(9,3,4,5)              0.0075         estimate D2E/DX2                !
 ! D18   D(9,3,4,23)          -179.9975         estimate D2E/DX2                !
 ! D19   D(2,3,9,8)           -179.9801         estimate D2E/DX2                !
 ! D20   D(2,3,9,10)             0.0125         estimate D2E/DX2                !
 ! D21   D(4,3,9,8)             -0.0063         estimate D2E/DX2                !
 ! D22   D(4,3,9,10)           179.9862         estimate D2E/DX2                !
 ! D23   D(3,4,5,6)             -0.0044         estimate D2E/DX2                !
 ! D24   D(3,4,5,24)          -179.9998         estimate D2E/DX2                !
 ! D25   D(23,4,5,6)          -179.9995         estimate D2E/DX2                !
 ! D26   D(23,4,5,24)            0.0052         estimate D2E/DX2                !
 ! D27   D(4,5,6,7)           -179.9969         estimate D2E/DX2                !
 ! D28   D(4,5,6,8)              0.0            estimate D2E/DX2                !
 ! D29   D(24,5,6,7)            -0.0015         estimate D2E/DX2                !
 ! D30   D(24,5,6,8)           179.9954         estimate D2E/DX2                !
 ! D31   D(5,6,8,9)              0.0013         estimate D2E/DX2                !
 ! D32   D(5,6,8,25)           179.9983         estimate D2E/DX2                !
 ! D33   D(7,6,8,9)            179.9982         estimate D2E/DX2                !
 ! D34   D(7,6,8,25)            -0.0048         estimate D2E/DX2                !
 ! D35   D(6,8,9,3)              0.0018         estimate D2E/DX2                !
 ! D36   D(6,8,9,10)          -179.9884         estimate D2E/DX2                !
 ! D37   D(25,8,9,3)          -179.9952         estimate D2E/DX2                !
 ! D38   D(25,8,9,10)            0.0146         estimate D2E/DX2                !
 ! D39   D(3,9,10,11)         -179.9908         estimate D2E/DX2                !
 ! D40   D(3,9,10,19)            0.0025         estimate D2E/DX2                !
 ! D41   D(8,9,10,11)            0.0004         estimate D2E/DX2                !
 ! D42   D(8,9,10,19)          179.9937         estimate D2E/DX2                !
 ! D43   D(9,10,11,12)        -179.9998         estimate D2E/DX2                !
 ! D44   D(19,10,11,12)          0.0077         estimate D2E/DX2                !
 ! D45   D(9,10,19,2)           -0.0168         estimate D2E/DX2                !
 ! D46   D(9,10,19,18)        -179.9986         estimate D2E/DX2                !
 ! D47   D(11,10,19,2)         179.9773         estimate D2E/DX2                !
 ! D48   D(11,10,19,18)         -0.0044         estimate D2E/DX2                !
 ! D49   D(10,11,12,13)        179.9978         estimate D2E/DX2                !
 ! D50   D(10,11,12,17)         -0.0033         estimate D2E/DX2                !
 ! D51   D(11,12,13,14)        179.999          estimate D2E/DX2                !
 ! D52   D(11,12,13,26)         -0.0045         estimate D2E/DX2                !
 ! D53   D(17,12,13,14)          0.0001         estimate D2E/DX2                !
 ! D54   D(17,12,13,26)        179.9965         estimate D2E/DX2                !
 ! D55   D(11,12,17,16)        179.9969         estimate D2E/DX2                !
 ! D56   D(11,12,17,18)         -0.0052         estimate D2E/DX2                !
 ! D57   D(13,12,17,16)         -0.0042         estimate D2E/DX2                !
 ! D58   D(13,12,17,18)        179.9937         estimate D2E/DX2                !
 ! D59   D(12,13,14,15)          0.0027         estimate D2E/DX2                !
 ! D60   D(12,13,14,27)       -179.9995         estimate D2E/DX2                !
 ! D61   D(26,13,14,15)       -179.9936         estimate D2E/DX2                !
 ! D62   D(26,13,14,27)          0.0042         estimate D2E/DX2                !
 ! D63   D(13,14,15,16)         -0.0017         estimate D2E/DX2                !
 ! D64   D(13,14,15,28)        179.9964         estimate D2E/DX2                !
 ! D65   D(27,14,15,16)       -179.9995         estimate D2E/DX2                !
 ! D66   D(27,14,15,28)         -0.0014         estimate D2E/DX2                !
 ! D67   D(14,15,16,17)         -0.0024         estimate D2E/DX2                !
 ! D68   D(28,15,16,17)        179.9994         estimate D2E/DX2                !
 ! D69   D(15,16,17,12)          0.0054         estimate D2E/DX2                !
 ! D70   D(15,16,17,18)       -179.9926         estimate D2E/DX2                !
 ! D71   D(12,17,18,19)          0.0084         estimate D2E/DX2                !
 ! D72   D(16,17,18,19)       -179.9935         estimate D2E/DX2                !
 ! D73   D(17,18,19,2)        -179.9828         estimate D2E/DX2                !
 ! D74   D(17,18,19,10)         -0.0041         estimate D2E/DX2                !
 --------------------------------------------------------------------------------
 Trust Radius=3.00D-01 FncErr=1.00D-07 GrdErr=1.00D-06 EigMax=2.50D+02 EigMin=1.00D-04
 Number of steps in this run=    166 maximum allowed number of steps=    168.
 GradGradGradGradGradGradGradGradGradGradGradGradGradGradGradGradGradGrad

 Leave Link  103 at Sun Jan 18 23:59:00 2026, MaxMem=  8053063680 cpu:               0.1 elap:               0.0
 (Enter /appl/Gaussian16/AVX_revB01/g16/l202.exe)
                          Input orientation:                          
 ---------------------------------------------------------------------
 Center     Atomic      Atomic             Coordinates (Angstroms)
 Number     Number       Type             X           Y           Z
 ---------------------------------------------------------------------
      1          6           0       -1.451682   -2.705665    0.447102
      2          7           0       -1.128933   -1.321590    0.236206
      3          6           0       -2.021581   -0.277826    0.119718
      4          6           0       -3.407081   -0.301921    0.177817
      5          6           0       -4.084804    0.894336    0.031224
      6          6           0       -3.390076    2.084580   -0.168498
      7         35           0       -4.386669    3.697971   -0.362869
      8          6           0       -2.010625    2.134787   -0.230045
      9          6           0       -1.324260    0.939112   -0.083905
     10          6           0        0.071158    0.600964   -0.089629
     11          7           0        1.148573    1.323918   -0.236440
     12          6           0        2.311563    0.637057   -0.182605
     13          6           0        3.531881    1.325574   -0.330077
     14          6           0        4.699898    0.615343   -0.273035
     15          6           0        4.634674   -0.775764   -0.069179
     16          7           0        3.527362   -1.448371    0.071538
     17          6           0        2.362352   -0.782347    0.020862
     18          7           0        1.240593   -1.517051    0.171286
     19          6           0        0.130683   -0.828102    0.114990
     20          1           0       -1.992516   -2.834773    1.386918
     21          1           0       -2.063456   -3.086374   -0.373403
     22          1           0       -0.513347   -3.255435    0.487877
     23          1           0       -3.947985   -1.221899    0.332334
     24          1           0       -5.163031    0.911066    0.071301
     25          1           0       -1.479609    3.060033   -0.384972
     26          1           0        3.504959    2.393961   -0.483727
     27          1           0        5.657873    1.099887   -0.380696
     28          1           0        5.544088   -1.361471   -0.020090
 ---------------------------------------------------------------------
                    Distance matrix (angstroms):
                    1          2          3          4          5
     1  C    0.000000
     2  N    1.436770   0.000000
     3  C    2.515227   1.378344   0.000000
     4  C    3.110319   2.496616   1.386927   0.000000
     5  C    4.479541   3.699935   2.374591   1.382689   0.000000
     6  C    5.204112   4.108351   2.745325   2.411558   1.392558
     7  Br   7.090610   6.013961   4.651182   4.153441   2.847245
     8  C    4.919443   3.597404   2.437859   2.837955   2.430885
     9  C    3.685458   2.291592   1.417270   2.438606   2.763306
    10  C    3.679798   2.289672   2.279398   3.603454   4.168057
    11  N    4.844181   3.522661   3.569637   4.854786   5.257796
    12  C    5.072704   3.981044   4.438980   5.806416   6.405109
    13  C    6.456840   5.389929   5.797770   7.145340   7.637434
    14  C    7.027775   6.163303   6.791927   8.171153   8.794396
    15  C    6.405840   5.797443   6.677526   8.059488   8.878548
    16  N    5.149049   4.660930   5.671266   7.029377   7.964607
    17  C    4.292748   3.539241   4.413975   5.791528   6.661621
    18  N    2.955880   2.378460   3.490003   4.803901   5.847586
    19  C    2.477785   1.358254   2.221501   3.577232   4.554574
    20  H    1.091983   2.087975   2.853878   3.142970   4.485736
    21  H    1.091986   2.087922   2.851818   3.140438   4.482814
    22  H    1.088294   2.045004   3.358046   4.146454   5.494037
    23  H    2.906245   2.822452   2.155810   1.078338   2.141924
    24  H    5.195775   4.613664   3.359243   2.136830   1.079101
    25  H    5.825495   4.439307   3.419027   3.915943   3.413283
    26  H    7.172232   5.983024   6.168082   7.448605   7.753616
    27  H    8.106370   7.232209   7.818089   9.189689   9.753547
    28  H    7.139042   6.678060   7.644160   9.015833   9.889735
                    6          7          8          9         10
     6  C    0.000000
     7  Br   1.906307   0.000000
     8  C    1.381736   2.847239   0.000000
     9  C    2.363652   4.131279   1.386396   0.000000
    10  C    3.766628   5.434918   2.589624   1.435817   0.000000
    11  N    4.602452   6.024202   3.261607   2.507239   1.305771
    12  C    5.882534   7.366681   4.574577   3.649683   2.242623
    13  C    6.965321   8.266364   5.602160   4.877711   3.543935
    14  C    8.222972   9.595642   6.880528   6.035816   4.632394
    15  C    8.519862  10.073985   7.256526   6.200799   4.766704
    16  N    7.771120   9.450155   6.602974   5.409480   4.021329
    17  C    6.430051   8.109857   5.262656   4.070074   2.678679
    18  N    5.876249   7.690764   4.905854   3.560384   2.433442
    19  C    4.578191   6.412500   3.671916   2.297709   1.444868
    20  H    5.345328   7.174292   5.226034   4.105130   4.271210
    21  H    5.342347   7.171106   5.223396   4.103017   4.270078
    22  H    6.100997   8.004764   5.640191   4.310306   3.942965
    23  H    3.390413   4.988073   3.916246   3.424493   4.433328
    24  H    2.139628   2.925421   3.394992   3.842009   5.245837
    25  H    2.155981   2.976314   1.077988   2.147808   2.922179
    26  H    6.909168   7.999552   5.527494   5.059427   3.893731
    27  H    9.103847  10.375123   7.739481   6.990287   5.616495
    28  H    9.576878  11.150578   8.327160   7.243685   5.814546
                   11         12         13         14         15
    11  N    0.000000
    12  C    1.351748   0.000000
    13  C    2.385147   1.408893   0.000000
    14  C    3.621509   2.390145   1.368190   0.000000
    15  C    4.073026   2.721355   2.387433   1.407476   0.000000
    16  N    3.665935   2.427296   2.802871   2.398435   1.303205
    17  C    2.444548   1.434812   2.436038   2.739349   2.274115
    18  N    2.871552   2.431542   3.685360   4.087947   3.482400
    19  C    2.406407   2.644143   4.050253   4.807476   4.508058
    20  H    5.458612   5.748226   7.125694   7.710198   7.090796
    21  H    5.457707   5.748142   7.125654   7.710755   7.091996
    22  H    4.925149   4.856044   6.165919   6.537571   5.741185
    23  H    5.725347   6.550025   7.929489   8.861592   8.603620
    24  H    6.332574   7.483923   8.714036   9.873367   9.942844
    25  H    3.153331   4.503859   5.303433   6.646454   7.224785
    26  H    2.599750   2.145130   1.079716   2.153080   3.390467
    27  H    4.517166   3.383968   2.138536   1.078930   2.159177
    28  H    5.155451   3.803912   3.371243   2.164355   1.082819
                   16         17         18         19         20
    16  N    0.000000
    17  C    1.342909   0.000000
    18  N    2.289973   1.349355   0.000000
    19  C    3.453121   2.234122   1.307563   0.000000
    20  H    5.841351   5.004342   3.696911   3.186299   0.000000
    21  H    5.842796   5.005173   3.698135   3.186309   1.779625
    22  H    4.445913   3.821507   2.489682   2.538851   1.781340
    23  H    7.483322   6.333291   5.199461   4.103395   2.745427
    24  H    9.004991   7.713727   6.849245   5.572255   5.080780
    25  H    6.753064   5.448784   5.353374   4.237995   6.176682
    26  H    3.882312   3.413077   4.566444   4.703817   7.814167
    27  H    3.352195   3.816348   5.163855   5.874749   8.782623
    28  H    2.020677   3.234271   4.310556   5.441294   7.807093
                   21         22         23         24         25
    21  H    0.000000
    22  H    1.781354   0.000000
    23  H    2.743315   3.994521   0.000000
    24  H    5.077859   6.257222   2.468606   0.000000
    25  H    6.174085   6.448307   4.994232   4.288804   0.000000
    26  H    7.813673   7.000463   8.323868   8.811418   5.029843
    27  H    8.783151   7.603105   9.908159  10.831986   7.401746
    28  H    7.808639   6.366919   9.499639  10.946012   8.307536
                   26         27         28
    26  H    0.000000
    27  H    2.514017   0.000000
    28  H    4.298404   2.490234   0.000000
 Stoichiometry    C14H9BrN4
 Framework group  C1[X(C14H9BrN4)]
 Deg. of freedom    78
 Full point group                 C1      NOp   1
 Largest Abelian subgroup         C1      NOp   1
 Largest concise Abelian subgroup C1      NOp   1
                         Standard orientation:                         
 ---------------------------------------------------------------------
 Center     Atomic      Atomic             Coordinates (Angstroms)
 Number     Number       Type             X           Y           Z
 ---------------------------------------------------------------------
      1          6           0        0.847339    3.516162    0.001157
      2          7           0        0.562667    2.107877   -0.000725
      3          6           0       -0.684643    1.521319   -0.000214
      4          6           0       -1.933898    2.123754   -0.000546
      5          6           0       -3.049538    1.306946   -0.000399
      6          6           0       -2.915205   -0.079118   -0.000023
      7         35           0       -4.494895   -1.146164    0.000073
      8          6           0       -1.682351   -0.703031    0.000220
      9          6           0       -0.559101    0.109621    0.000103
     10          6           0        0.850474   -0.163635    0.000061
     11          7           0        1.527820   -1.279986    0.000114
     12          6           0        2.871778   -1.135072    0.000047
     13          6           0        3.693396   -2.279590    0.000142
     14          6           0        5.051684   -2.115277    0.000052
     15          6           0        5.573415   -0.808071   -0.000075
     16          7           0        4.847866    0.274482   -0.000145
     17          6           0        3.510777    0.149593   -0.000143
     18          7           0        2.798037    1.295351   -0.000371
     19          6           0        1.501451    1.126277   -0.000226
     20          1           0        0.431501    3.992987   -0.888867
     21          1           0        0.428474    3.991139    0.890755
     22          1           0        1.929793    3.628731    0.003104
     23          1           0       -2.041298    3.196731   -0.000829
     24          1           0       -4.036555    1.743128   -0.000652
     25          1           0       -1.586141   -1.776717    0.000538
     26          1           0        3.222696   -3.251304    0.000343
     27          1           0        5.720042   -2.962264    0.000111
     28          1           0        6.644640   -0.650038   -0.000090
 ---------------------------------------------------------------------
 Rotational constants (GHZ):           0.7159006           0.1397415           0.1170057
 Leave Link  202 at Sun Jan 18 23:59:00 2026, MaxMem=  8053063680 cpu:               0.0 elap:               0.1
 (Enter /appl/Gaussian16/AVX_revB01/g16/l301.exe)
 Standard basis: 6-31G(d) (6D, 7F)
 Ernie: Thresh=  0.10000D-02 Tol=  0.10000D-05 Strict=F.
 There are   318 symmetry adapted cartesian basis functions of A   symmetry.
 There are   318 symmetry adapted basis functions of A   symmetry.
   318 basis functions,   623 primitive gaussians,   318 cartesian basis functions
    78 alpha electrons       78 beta electrons
       nuclear repulsion energy      1622.5345513494 Hartrees.
 IExCor=  402 DFT=T Ex+Corr=B3LYP ExCW=0 ScaHFX=  0.200000
 ScaDFX=  0.800000  0.720000  1.000000  0.810000 ScalE2=  1.000000  1.000000
 IRadAn=      5 IRanWt=     -1 IRanGd=            0 ICorTp=0 IEmpDi=  4
 NAtoms=   28 NActive=   28 NUniq=   28 SFac= 1.00D+00 NAtFMM=   60 NAOKFM=F Big=F
 Integral buffers will be    131072 words long.
 Raffenetti 2 integral format.
 Two-electron integral symmetry is turned on.
 Leave Link  301 at Sun Jan 18 23:59:00 2026, MaxMem=  8053063680 cpu:               0.5 elap:               0.1
 (Enter /appl/Gaussian16/AVX_revB01/g16/l302.exe)
 NPDir=0 NMtPBC=     1 NCelOv=     1 NCel=       1 NClECP=     1 NCelD=      1
         NCelK=      1 NCelE2=     1 NClLst=     1 CellRange=     0.0.
 One-electron integrals computed using PRISM.
 One-electron integral symmetry used in STVInt
 NBasis=   318 RedAO= T EigKep=  3.01D-04  NBF=   318
 NBsUse=   318 1.00D-06 EigRej= -1.00D+00 NBFU=   318
 Precomputing XC quadrature grid using
 IXCGrd= 4 IRadAn=           5 IRanWt=          -1 IRanGd=           0 AccXCQ= 0.00D+00.
 Generated NRdTot=       0 NPtTot=           0 NUsed=           0 NTot=          32
 NSgBfM=   312   312   312   312   312 MxSgAt=    28 MxSgA2=    28.
 Leave Link  302 at Sun Jan 18 23:59:00 2026, MaxMem=  8053063680 cpu:               3.5 elap:               0.2
 (Enter /appl/Gaussian16/AVX_revB01/g16/l303.exe)
 DipDrv:  MaxL=1.
 Leave Link  303 at Sun Jan 18 23:59:01 2026, MaxMem=  8053063680 cpu:               0.6 elap:               0.1
 (Enter /appl/Gaussian16/AVX_revB01/g16/l401.exe)
 ExpMin= 1.43D-01 ExpMax= 5.74D+05 ExpMxC= 5.74D+03 IAcc=3 IRadAn=         5 AccDes= 0.00D+00
 Harris functional with IExCor=  402 and IRadAn=       5 diagonalized for initial guess.
 HarFok:  IExCor=  402 AccDes= 0.00D+00 IRadAn=         5 IDoV= 1 UseB2=F ITyADJ=14
 ICtDFT=  3500011 ScaDFX=  1.000000  1.000000  1.000000  1.000000
 FoFCou: FMM=F IPFlag=           0 FMFlag=      100000 FMFlg1=           0
         NFxFlg=           0 DoJE=T BraDBF=F KetDBF=T FulRan=T
         wScrn=  0.000000 ICntrl=       500 IOpCl=  0 I1Cent=   200000004 NGrid=           0
         NMat0=    1 NMatS0=      1 NMatT0=    0 NMatD0=    1 NMtDS0=    0 NMtDT0=    0
 Petite list used in FoFCou.
 Harris En= -3329.67149402227    
 JPrj=0 DoOrth=F DoCkMO=F.
 Leave Link  401 at Sun Jan 18 23:59:02 2026, MaxMem=  8053063680 cpu:              14.1 elap:               0.9
 (Enter /appl/Gaussian16/AVX_revB01/g16/l502.exe)
 Integral symmetry usage will be decided dynamically.
 Closed shell SCF:
 Using DIIS extrapolation, IDIIS=  1040.
 NGot=  8053063680 LenX=  8052852982 LenY=  8052751417
 Requested convergence on RMS density matrix=1.00D-08 within  32 cycles.
 Requested convergence on MAX density matrix=1.00D-06.
 Requested convergence on             energy=1.00D-06.
 No special actions if energy rises.
 Fock matrices will be formed incrementally for  20 cycles.
 Integral accuracy reduced to 1.0D-05 until final iterations.

 Cycle   1  Pass 0  IDiag  1:
 FoFJK:  IHMeth= 1 ICntrl=       0 DoSepK=F KAlg= 0 I1Cent=           0 FoldK=F
 IRaf= 780000000 NMat=       1 IRICut=       1 DoRegI=T DoRafI=F ISym2E= 0 IDoP0=0 IntGTp=1.
 FoFCou: FMM=F IPFlag=           0 FMFlag=      100000 FMFlg1=           0
         NFxFlg=           0 DoJE=F BraDBF=F KetDBF=F FulRan=T
         wScrn=  0.000000 ICntrl=         0 IOpCl=  0 I1Cent=           0 NGrid=           0
         NMat0=    1 NMatS0=      1 NMatT0=    0 NMatD0=    1 NMtDS0=    0 NMtDT0=    0
 Symmetry not used in FoFCou.
 E= -3329.34068364704    
 DIIS: error= 1.83D-01 at cycle   1 NSaved=   1.
 NSaved= 1 IEnMin= 1 EnMin= -3329.34068364704     IErMin= 1 ErrMin= 1.83D-01
 ErrMax= 1.83D-01  0.00D+00 EMaxC= 1.00D-01 BMatC= 6.56D-01 BMatP= 6.56D-01
 IDIUse=3 WtCom= 0.00D+00 WtEn= 1.00D+00
 Coeff-Com:  0.100D+01
 Coeff-En:   0.100D+01
 Coeff:      0.100D+01
 Gap=     0.172 Goal=   None    Shift=    0.000
 GapD=    0.172 DampG=1.000 DampE=0.250 DampFc=0.2500 IDamp=-1.
 Damping current iteration by 2.50D-01
 RMSDP=4.89D-03 MaxDP=1.49D-01              OVMax= 1.92D-01

 Cycle   2  Pass 0  IDiag  1:
 RMSU=  1.18D-03    CP:  9.89D-01
 E= -3329.44725073681     Delta-E=       -0.106567089768 Rises=F Damp=T
 DIIS: error= 1.35D-01 at cycle   2 NSaved=   2.
 NSaved= 2 IEnMin= 2 EnMin= -3329.44725073681     IErMin= 2 ErrMin= 1.35D-01
 ErrMax= 1.35D-01  0.00D+00 EMaxC= 1.00D-01 BMatC= 2.79D-01 BMatP= 6.56D-01
 IDIUse=3 WtCom= 0.00D+00 WtEn= 1.00D+00
 Coeff-Com: -0.129D+01 0.229D+01
 Coeff-En:   0.000D+00 0.100D+01
 Coeff:      0.000D+00 0.100D+01
 Gap=     0.157 Goal=   None    Shift=    0.000
 RMSDP=2.68D-03 MaxDP=1.11D-01 DE=-1.07D-01 OVMax= 1.00D-01

 Cycle   3  Pass 0  IDiag  1:
 RMSU=  1.03D-03    CP:  9.59D-01  2.94D+00
 E= -3329.59104564752     Delta-E=       -0.143794910710 Rises=F Damp=F
 DIIS: error= 1.46D-02 at cycle   3 NSaved=   3.
 NSaved= 3 IEnMin= 3 EnMin= -3329.59104564752     IErMin= 3 ErrMin= 1.46D-02
 ErrMax= 1.46D-02  0.00D+00 EMaxC= 1.00D-01 BMatC= 5.66D-02 BMatP= 2.79D-01
 IDIUse=3 WtCom= 8.54D-01 WtEn= 1.46D-01
 Coeff-Com:  0.992D+00-0.118D+01 0.118D+01
 Coeff-En:   0.602D-01 0.000D+00 0.940D+00
 Coeff:      0.856D+00-0.100D+01 0.115D+01
 Gap=     0.138 Goal=   None    Shift=    0.000
 RMSDP=1.29D-03 MaxDP=3.73D-02 DE=-1.44D-01 OVMax= 5.31D-02

 Cycle   4  Pass 0  IDiag  1:
 RMSU=  8.91D-04    CP:  9.62D-01  2.16D+00  1.06D+00
 E= -3329.63027249421     Delta-E=       -0.039226846692 Rises=F Damp=F
 DIIS: error= 5.92D-03 at cycle   4 NSaved=   4.
 NSaved= 4 IEnMin= 4 EnMin= -3329.63027249421     IErMin= 4 ErrMin= 5.92D-03
 ErrMax= 5.92D-03  0.00D+00 EMaxC= 1.00D-01 BMatC= 1.49D-02 BMatP= 5.66D-02
 IDIUse=3 WtCom= 9.41D-01 WtEn= 5.92D-02
 Coeff-Com:  0.627D+00-0.811D+00 0.688D+00 0.496D+00
 Coeff-En:   0.000D+00 0.000D+00 0.132D+00 0.868D+00
 Coeff:      0.590D+00-0.763D+00 0.655D+00 0.518D+00
 Gap=     0.139 Goal=   None    Shift=    0.000
 RMSDP=6.11D-04 MaxDP=1.67D-02 DE=-3.92D-02 OVMax= 4.95D-02

 Cycle   5  Pass 0  IDiag  1:
 RMSU=  2.27D-04    CP:  9.62D-01  2.22D+00  1.20D+00  3.88D-01
 E= -3329.64535399447     Delta-E=       -0.015081500260 Rises=F Damp=F
 DIIS: error= 1.89D-03 at cycle   5 NSaved=   5.
 NSaved= 5 IEnMin= 5 EnMin= -3329.64535399447     IErMin= 5 ErrMin= 1.89D-03
 ErrMax= 1.89D-03  0.00D+00 EMaxC= 1.00D-01 BMatC= 1.61D-03 BMatP= 1.49D-02
 IDIUse=3 WtCom= 9.81D-01 WtEn= 1.89D-02
 Coeff-Com:  0.259D+00-0.338D+00 0.302D+00 0.317D+00 0.460D+00
 Coeff-En:   0.000D+00 0.000D+00 0.000D+00 0.553D-01 0.945D+00
 Coeff:      0.254D+00-0.331D+00 0.297D+00 0.312D+00 0.469D+00
 Gap=     0.137 Goal=   None    Shift=    0.000
 RMSDP=1.77D-04 MaxDP=6.23D-03 DE=-1.51D-02 OVMax= 1.62D-02

 Cycle   6  Pass 0  IDiag  1:
 RMSU=  6.66D-05    CP:  9.62D-01  2.25D+00  1.19D+00  4.63D-01  3.65D-01
 E= -3329.64705906732     Delta-E=       -0.001705072851 Rises=F Damp=F
 DIIS: error= 3.71D-04 at cycle   6 NSaved=   6.
 NSaved= 6 IEnMin= 6 EnMin= -3329.64705906732     IErMin= 6 ErrMin= 3.71D-04
 ErrMax= 3.71D-04  0.00D+00 EMaxC= 1.00D-01 BMatC= 7.52D-05 BMatP= 1.61D-03
 IDIUse=3 WtCom= 9.96D-01 WtEn= 3.71D-03
 Coeff-Com:  0.709D-01-0.927D-01 0.900D-01 0.121D+00 0.255D+00 0.556D+00
 Coeff-En:   0.000D+00 0.000D+00 0.000D+00 0.000D+00 0.000D+00 0.100D+01
 Coeff:      0.707D-01-0.924D-01 0.897D-01 0.120D+00 0.254D+00 0.558D+00
 Gap=     0.136 Goal=   None    Shift=    0.000
 RMSDP=4.54D-05 MaxDP=2.00D-03 DE=-1.71D-03 OVMax= 3.65D-03

 Cycle   7  Pass 0  IDiag  1:
 RMSU=  2.18D-05    CP:  9.62D-01  2.25D+00  1.18D+00  4.76D-01  4.58D-01
                    CP:  5.30D-01
 E= -3329.64712995752     Delta-E=       -0.000070890199 Rises=F Damp=F
 DIIS: error= 1.75D-04 at cycle   7 NSaved=   7.
 NSaved= 7 IEnMin= 7 EnMin= -3329.64712995752     IErMin= 7 ErrMin= 1.75D-04
 ErrMax= 1.75D-04  0.00D+00 EMaxC= 1.00D-01 BMatC= 1.22D-05 BMatP= 7.52D-05
 IDIUse=3 WtCom= 9.98D-01 WtEn= 1.75D-03
 Coeff-Com:  0.235D-01-0.309D-01 0.325D-01 0.517D-01 0.127D+00 0.360D+00
 Coeff-Com:  0.436D+00
 Coeff-En:   0.000D+00 0.000D+00 0.000D+00 0.000D+00 0.000D+00 0.824D-01
 Coeff-En:   0.918D+00
 Coeff:      0.235D-01-0.308D-01 0.325D-01 0.516D-01 0.127D+00 0.360D+00
 Coeff:      0.437D+00
 Gap=     0.136 Goal=   None    Shift=    0.000
 RMSDP=1.40D-05 MaxDP=7.29D-04 DE=-7.09D-05 OVMax= 1.22D-03

 Cycle   8  Pass 0  IDiag  1:
 RMSU=  6.35D-06    CP:  9.62D-01  2.25D+00  1.18D+00  4.78D-01  4.57D-01
                    CP:  5.91D-01  4.66D-01
 E= -3329.64714161281     Delta-E=       -0.000011655289 Rises=F Damp=F
 DIIS: error= 4.14D-05 at cycle   8 NSaved=   8.
 NSaved= 8 IEnMin= 8 EnMin= -3329.64714161281     IErMin= 8 ErrMin= 4.14D-05
 ErrMax= 4.14D-05  0.00D+00 EMaxC= 1.00D-01 BMatC= 6.46D-07 BMatP= 1.22D-05
 IDIUse=1 WtCom= 1.00D+00 WtEn= 0.00D+00
 Coeff-Com:  0.525D-02-0.695D-02 0.799D-02 0.151D-01 0.418D-01 0.138D+00
 Coeff-Com:  0.235D+00 0.564D+00
 Coeff:      0.525D-02-0.695D-02 0.799D-02 0.151D-01 0.418D-01 0.138D+00
 Coeff:      0.235D+00 0.564D+00
 Gap=     0.136 Goal=   None    Shift=    0.000
 RMSDP=4.01D-06 MaxDP=1.53D-04 DE=-1.17D-05 OVMax= 3.21D-04

 Initial convergence to 1.0D-05 achieved.  Increase integral accuracy.
 Cycle   9  Pass 1  IDiag  1:
 E= -3329.64714729652     Delta-E=       -0.000005683705 Rises=F Damp=F
 DIIS: error= 1.13D-04 at cycle   1 NSaved=   1.
 NSaved= 1 IEnMin= 1 EnMin= -3329.64714729652     IErMin= 1 ErrMin= 1.13D-04
 ErrMax= 1.13D-04  0.00D+00 EMaxC= 1.00D-01 BMatC= 9.70D-07 BMatP= 9.70D-07
 IDIUse=3 WtCom= 9.99D-01 WtEn= 1.13D-03
 Coeff-Com:  0.100D+01
 Coeff-En:   0.100D+01
 Coeff:      0.100D+01
 Gap=     0.136 Goal=   None    Shift=    0.000
 RMSDP=4.01D-06 MaxDP=1.53D-04 DE=-5.68D-06 OVMax= 3.68D-04

 Cycle  10  Pass 1  IDiag  1:
 RMSU=  5.41D-05    CP:  1.00D+00
 E= -3329.64714741294     Delta-E=       -0.000000116426 Rises=F Damp=F
 DIIS: error= 5.38D-05 at cycle   2 NSaved=   2.
 NSaved= 2 IEnMin= 2 EnMin= -3329.64714741294     IErMin= 2 ErrMin= 5.38D-05
 ErrMax= 5.38D-05  0.00D+00 EMaxC= 1.00D-01 BMatC= 6.51D-07 BMatP= 9.70D-07
 IDIUse=1 WtCom= 1.00D+00 WtEn= 0.00D+00
 Coeff-Com:  0.427D+00 0.573D+00
 Coeff:      0.427D+00 0.573D+00
 Gap=     0.136 Goal=   None    Shift=    0.000
 RMSDP=5.70D-06 MaxDP=2.76D-04 DE=-1.16D-07 OVMax= 5.04D-04

 Cycle  11  Pass 1  IDiag  1:
 RMSU=  5.69D-06    CP:  1.00D+00  9.92D-01
 E= -3329.64714751914     Delta-E=       -0.000000106197 Rises=F Damp=F
 DIIS: error= 5.08D-05 at cycle   3 NSaved=   3.
 NSaved= 3 IEnMin= 3 EnMin= -3329.64714751914     IErMin= 3 ErrMin= 5.08D-05
 ErrMax= 5.08D-05  0.00D+00 EMaxC= 1.00D-01 BMatC= 5.47D-07 BMatP= 6.51D-07
 IDIUse=1 WtCom= 1.00D+00 WtEn= 0.00D+00
 Coeff-Com:  0.777D-02 0.476D+00 0.516D+00
 Coeff:      0.777D-02 0.476D+00 0.516D+00
 Gap=     0.136 Goal=   None    Shift=    0.000
 RMSDP=2.95D-06 MaxDP=1.53D-04 DE=-1.06D-07 OVMax= 2.55D-04

 Cycle  12  Pass 1  IDiag  1:
 RMSU=  5.91D-07    CP:  1.00D+00  1.01D+00  5.07D-01
 E= -3329.64714808633     Delta-E=       -0.000000567189 Rises=F Damp=F
 DIIS: error= 4.52D-06 at cycle   4 NSaved=   4.
 NSaved= 4 IEnMin= 4 EnMin= -3329.64714808633     IErMin= 4 ErrMin= 4.52D-06
 ErrMax= 4.52D-06  0.00D+00 EMaxC= 1.00D-01 BMatC= 1.04D-08 BMatP= 5.47D-07
 IDIUse=1 WtCom= 1.00D+00 WtEn= 0.00D+00
 Coeff-Com: -0.283D-02 0.282D+00 0.317D+00 0.404D+00
 Coeff:     -0.283D-02 0.282D+00 0.317D+00 0.404D+00
 Gap=     0.136 Goal=   None    Shift=    0.000
 RMSDP=3.65D-07 MaxDP=1.58D-05 DE=-5.67D-07 OVMax= 2.82D-05

 Cycle  13  Pass 1  IDiag  1:
 RMSU=  1.53D-07    CP:  1.00D+00  1.01D+00  5.23D-01  4.61D-01
 E= -3329.64714809591     Delta-E=       -0.000000009582 Rises=F Damp=F
 DIIS: error= 7.94D-07 at cycle   5 NSaved=   5.
 NSaved= 5 IEnMin= 5 EnMin= -3329.64714809591     IErMin= 5 ErrMin= 7.94D-07
 ErrMax= 7.94D-07  0.00D+00 EMaxC= 1.00D-01 BMatC= 2.62D-10 BMatP= 1.04D-08
 IDIUse=1 WtCom= 1.00D+00 WtEn= 0.00D+00
 Coeff-Com: -0.191D-02 0.153D+00 0.172D+00 0.241D+00 0.436D+00
 Coeff:     -0.191D-02 0.153D+00 0.172D+00 0.241D+00 0.436D+00
 Gap=     0.136 Goal=   None    Shift=    0.000
 RMSDP=6.81D-08 MaxDP=3.50D-06 DE=-9.58D-09 OVMax= 4.66D-06

 Cycle  14  Pass 1  IDiag  1:
 RMSU=  4.81D-08    CP:  1.00D+00  1.01D+00  5.22D-01  4.88D-01  7.04D-01
 E= -3329.64714809619     Delta-E=       -0.000000000284 Rises=F Damp=F
 DIIS: error= 2.25D-07 at cycle   6 NSaved=   6.
 NSaved= 6 IEnMin= 6 EnMin= -3329.64714809619     IErMin= 6 ErrMin= 2.25D-07
 ErrMax= 2.25D-07  0.00D+00 EMaxC= 1.00D-01 BMatC= 1.18D-11 BMatP= 2.62D-10
 IDIUse=1 WtCom= 1.00D+00 WtEn= 0.00D+00
 Coeff-Com: -0.794D-03 0.590D-01 0.667D-01 0.973D-01 0.234D+00 0.544D+00
 Coeff:     -0.794D-03 0.590D-01 0.667D-01 0.973D-01 0.234D+00 0.544D+00
 Gap=     0.136 Goal=   None    Shift=    0.000
 RMSDP=1.66D-08 MaxDP=6.89D-07 DE=-2.84D-10 OVMax= 1.47D-06

 Cycle  15  Pass 1  IDiag  1:
 RMSU=  1.35D-08    CP:  1.00D+00  1.01D+00  5.22D-01  4.86D-01  7.19D-01
                    CP:  8.09D-01
 E= -3329.64714809622     Delta-E=       -0.000000000027 Rises=F Damp=F
 DIIS: error= 1.39D-07 at cycle   7 NSaved=   7.
 NSaved= 7 IEnMin= 7 EnMin= -3329.64714809622     IErMin= 7 ErrMin= 1.39D-07
 ErrMax= 1.39D-07  0.00D+00 EMaxC= 1.00D-01 BMatC= 2.08D-12 BMatP= 1.18D-11
 IDIUse=1 WtCom= 1.00D+00 WtEn= 0.00D+00
 Coeff-Com: -0.276D-03 0.194D-01 0.220D-01 0.334D-01 0.940D-01 0.331D+00
 Coeff-Com:  0.501D+00
 Coeff:     -0.276D-03 0.194D-01 0.220D-01 0.334D-01 0.940D-01 0.331D+00
 Coeff:      0.501D+00
 Gap=     0.136 Goal=   None    Shift=    0.000
 RMSDP=6.66D-09 MaxDP=3.56D-07 DE=-2.73D-11 OVMax= 6.66D-07

 SCF Done:  E(RB3LYP) =  -3329.64714810     A.U. after   15 cycles
            NFock= 15  Conv=0.67D-08     -V/T= 2.0067
 KE= 3.307487158977D+03 PE=-1.113729599586D+04 EE= 2.877627137442D+03
 Leave Link  502 at Sun Jan 18 23:59:20 2026, MaxMem=  8053063680 cpu:             277.9 elap:              17.4
 (Enter /appl/Gaussian16/AVX_revB01/g16/l508.exe)
 QCSCF skips out because SCF is already converged.
 Leave Link  508 at Sun Jan 18 23:59:20 2026, MaxMem=  8053063680 cpu:               0.0 elap:               0.1
 (Enter /appl/Gaussian16/AVX_revB01/g16/l601.exe)
 Copying SCF densities to generalized density rwf, IOpCl= 0 IROHF=0.

 **********************************************************************

            Population analysis using the SCF Density.

 **********************************************************************

 Orbital symmetries:
       Occupied  (A) (A) (A) (A) (A) (A) (A) (A) (A) (A) (A) (A)
                 (A) (A) (A) (A) (A) (A) (A) (A) (A) (A) (A) (A)
                 (A) (A) (A) (A) (A) (A) (A) (A) (A) (A) (A) (A)
                 (A) (A) (A) (A) (A) (A) (A) (A) (A) (A) (A) (A)
                 (A) (A) (A) (A) (A) (A) (A) (A) (A) (A) (A) (A)
                 (A) (A) (A) (A) (A) (A) (A) (A) (A) (A) (A) (A)
                 (A) (A) (A) (A) (A) (A)
       Virtual   (A) (A) (A) (A) (A) (A) (A) (A) (A) (A) (A) (A)
                 (A) (A) (A) (A) (A) (A) (A) (A) (A) (A) (A) (A)
                 (A) (A) (A) (A) (A) (A) (A) (A) (A) (A) (A) (A)
                 (A) (A) (A) (A) (A) (A) (A) (A) (A) (A) (A) (A)
                 (A) (A) (A) (A) (A) (A) (A) (A) (A) (A) (A) (A)
                 (A) (A) (A) (A) (A) (A) (A) (A) (A) (A) (A) (A)
                 (A) (A) (A) (A) (A) (A) (A) (A) (A) (A) (A) (A)
                 (A) (A) (A) (A) (A) (A) (A) (A) (A) (A) (A) (A)
                 (A) (A) (A) (A) (A) (A) (A) (A) (A) (A) (A) (A)
                 (A) (A) (A) (A) (A) (A) (A) (A) (A) (A) (A) (A)
                 (A) (A) (A) (A) (A) (A) (A) (A) (A) (A) (A) (A)
                 (A) (A) (A) (A) (A) (A) (A) (A) (A) (A) (A) (A)
                 (A) (A) (A) (A) (A) (A) (A) (A) (A) (A) (A) (A)
                 (A) (A) (A) (A) (A) (A) (A) (A) (A) (A) (A) (A)
                 (A) (A) (A) (A) (A) (A) (A) (A) (A) (A) (A) (A)
                 (A) (A) (A) (A) (A) (A) (A) (A) (A) (A) (A) (A)
                 (A) (A) (A) (A) (A) (A) (A) (A) (A) (A) (A) (A)
                 (A) (A) (A) (A) (A) (A) (A) (A) (A) (A) (A) (A)
                 (A) (A) (A) (A) (A) (A) (A) (A) (A) (A) (A) (A)
                 (A) (A) (A) (A) (A) (A) (A) (A) (A) (A) (A) (A)
 The electronic state is 1-A.
 Alpha  occ. eigenvalues -- -482.91068 -61.87243 -56.39378 -56.38967 -56.38954
 Alpha  occ. eigenvalues --  -14.39913 -14.35139 -14.34156 -14.32616 -10.27039
 Alpha  occ. eigenvalues --  -10.25692 -10.24808 -10.24741 -10.24079 -10.23680
 Alpha  occ. eigenvalues --  -10.23299 -10.22827 -10.21398 -10.21272 -10.21194
 Alpha  occ. eigenvalues --  -10.20972 -10.20880 -10.20080  -8.58388  -6.53785
 Alpha  occ. eigenvalues --   -6.52503  -6.52488  -2.65358  -2.64989  -2.64978
 Alpha  occ. eigenvalues --   -2.63955  -2.63955  -1.03456  -0.98587  -0.94451
 Alpha  occ. eigenvalues --   -0.91651  -0.88167  -0.82592  -0.80317  -0.79788
 Alpha  occ. eigenvalues --   -0.75966  -0.75352  -0.71663  -0.68654  -0.65614
 Alpha  occ. eigenvalues --   -0.63180  -0.61513  -0.59764  -0.57664  -0.55935
 Alpha  occ. eigenvalues --   -0.52024  -0.51408  -0.49602  -0.49223  -0.47845
 Alpha  occ. eigenvalues --   -0.47299  -0.46211  -0.45820  -0.44764  -0.44377
 Alpha  occ. eigenvalues --   -0.41500  -0.41395  -0.41266  -0.39164  -0.38018
 Alpha  occ. eigenvalues --   -0.37707  -0.36761  -0.36624  -0.33754  -0.31883
 Alpha  occ. eigenvalues --   -0.29796  -0.29486  -0.28805  -0.27893  -0.26533
 Alpha  occ. eigenvalues --   -0.24101  -0.23958  -0.21997
 Alpha virt. eigenvalues --   -0.08390  -0.03100  -0.00525   0.00011   0.00734
 Alpha virt. eigenvalues --    0.01409   0.09061   0.09649   0.10566   0.11687
 Alpha virt. eigenvalues --    0.14241   0.14454   0.14593   0.15865   0.16237
 Alpha virt. eigenvalues --    0.16925   0.17642   0.17826   0.19648   0.20784
 Alpha virt. eigenvalues --    0.21502   0.23227   0.24348   0.25644   0.26695
 Alpha virt. eigenvalues --    0.27991   0.29219   0.30616   0.32199   0.32881
 Alpha virt. eigenvalues --    0.34859   0.36515   0.37691   0.38531   0.40874
 Alpha virt. eigenvalues --    0.42918   0.44412   0.44730   0.45898   0.46276
 Alpha virt. eigenvalues --    0.46355   0.47477   0.47586   0.48756   0.48946
 Alpha virt. eigenvalues --    0.49770   0.50305   0.50713   0.52596   0.53217
 Alpha virt. eigenvalues --    0.53673   0.54125   0.54318   0.56503   0.57065
 Alpha virt. eigenvalues --    0.58459   0.58533   0.58906   0.59121   0.59260
 Alpha virt. eigenvalues --    0.60086   0.62613   0.63583   0.63899   0.64217
 Alpha virt. eigenvalues --    0.65226   0.65948   0.66233   0.67190   0.69326
 Alpha virt. eigenvalues --    0.70255   0.70931   0.72281   0.72467   0.74026
 Alpha virt. eigenvalues --    0.77108   0.78139   0.78831   0.79359   0.80558
 Alpha virt. eigenvalues --    0.81436   0.82015   0.82493   0.83220   0.83585
 Alpha virt. eigenvalues --    0.84446   0.84719   0.87179   0.87610   0.88469
 Alpha virt. eigenvalues --    0.89261   0.90210   0.90522   0.92667   0.92686
 Alpha virt. eigenvalues --    0.94755   0.94764   0.95365   0.97031   0.98682
 Alpha virt. eigenvalues --    0.99071   1.01396   1.03624   1.06495   1.07550
 Alpha virt. eigenvalues --    1.09507   1.13499   1.14184   1.15292   1.18054
 Alpha virt. eigenvalues --    1.18977   1.19427   1.20938   1.23570   1.25402
 Alpha virt. eigenvalues --    1.26243   1.28535   1.29792   1.31751   1.31985
 Alpha virt. eigenvalues --    1.32520   1.33306   1.37903   1.38990   1.39535
 Alpha virt. eigenvalues --    1.41077   1.43528   1.43829   1.46017   1.46609
 Alpha virt. eigenvalues --    1.48321   1.49142   1.50150   1.51018   1.51030
 Alpha virt. eigenvalues --    1.54620   1.57567   1.60347   1.64215   1.65667
 Alpha virt. eigenvalues --    1.68385   1.71126   1.72121   1.75013   1.76468
 Alpha virt. eigenvalues --    1.78621   1.79539   1.80514   1.81507   1.82843
 Alpha virt. eigenvalues --    1.85017   1.85727   1.86099   1.87511   1.90944
 Alpha virt. eigenvalues --    1.91783   1.94041   1.95521   1.95775   1.98389
 Alpha virt. eigenvalues --    2.01291   2.02731   2.03203   2.04254   2.05883
 Alpha virt. eigenvalues --    2.09691   2.11981   2.12970   2.13454   2.15064
 Alpha virt. eigenvalues --    2.16952   2.19031   2.19213   2.21343   2.22275
 Alpha virt. eigenvalues --    2.22493   2.24884   2.25792   2.27088   2.28076
 Alpha virt. eigenvalues --    2.33050   2.33636   2.34548   2.36583   2.38649
 Alpha virt. eigenvalues --    2.38988   2.42445   2.43613   2.44983   2.49426
 Alpha virt. eigenvalues --    2.52761   2.53046   2.53654   2.60994   2.61082
 Alpha virt. eigenvalues --    2.61638   2.63034   2.66121   2.66921   2.68209
 Alpha virt. eigenvalues --    2.68665   2.69651   2.72169   2.74272   2.76690
 Alpha virt. eigenvalues --    2.78307   2.80982   2.82916   2.84770   2.87485
 Alpha virt. eigenvalues --    2.91467   2.98669   3.01563   3.05261   3.08817
 Alpha virt. eigenvalues --    3.26351   3.28913   3.38731   3.49230   3.56453
 Alpha virt. eigenvalues --    4.03923   4.06546   4.06939   4.08604   4.11299
 Alpha virt. eigenvalues --    4.15199   4.18035   4.20944   4.26786   4.31206
 Alpha virt. eigenvalues --    4.37625   4.41589   4.44825   4.54396   4.65263
 Alpha virt. eigenvalues --    4.69803   4.78696   4.87695   8.60713  72.81421
          Condensed to atoms (all electrons):
               1          2          3          4          5          6
     1  C    5.005855   0.292245  -0.046148  -0.003273  -0.000154   0.000012
     2  N    0.292245   7.144050   0.282463  -0.098181   0.006134  -0.000309
     3  C   -0.046148   0.282463   4.705135   0.480619   0.000834  -0.036882
     4  C   -0.003273  -0.098181   0.480619   5.104439   0.483163  -0.018988
     5  C   -0.000154   0.006134   0.000834   0.483163   4.956470   0.512774
     6  C    0.000012  -0.000309  -0.036882  -0.018988   0.512774   4.822209
     7  Br  -0.000000   0.000002   0.000614   0.005861  -0.055974   0.252160
     8  C   -0.000064   0.010594  -0.079057  -0.060006  -0.033931   0.467295
     9  C    0.005090  -0.031135   0.449985  -0.049934  -0.041879   0.006164
    10  C    0.007046  -0.087418   0.027526   0.016870   0.000217   0.008239
    11  N   -0.000110   0.006582   0.008978  -0.000120   0.000006   0.000187
    12  C   -0.000022   0.001184   0.000101   0.000008   0.000000   0.000004
    13  C    0.000000   0.000012   0.000008  -0.000000  -0.000000  -0.000000
    14  C   -0.000000   0.000000  -0.000000   0.000000   0.000000   0.000000
    15  C    0.000000   0.000000  -0.000000   0.000000   0.000000   0.000000
    16  N    0.000006  -0.000046  -0.000002  -0.000000   0.000000  -0.000000
    17  C    0.000103   0.002130  -0.000276  -0.000003   0.000000   0.000000
    18  N   -0.008006  -0.082403  -0.000275  -0.000219   0.000002  -0.000000
    19  C   -0.038114   0.285842  -0.099695   0.001803  -0.000081  -0.000343
    20  H    0.375634  -0.041825  -0.000691   0.002745   0.000000  -0.000001
    21  H    0.375582  -0.041836  -0.000687   0.002762  -0.000000  -0.000001
    22  H    0.375365  -0.033913   0.002029   0.000069   0.000002  -0.000000
    23  H    0.004774  -0.008376  -0.033475   0.351198  -0.039610   0.003794
    24  H   -0.000002  -0.000102   0.002887  -0.038486   0.360006  -0.039329
    25  H    0.000003  -0.000087   0.004658   0.000064   0.005078  -0.045249
    26  H    0.000000  -0.000000  -0.000000  -0.000000   0.000000   0.000000
    27  H   -0.000000  -0.000000   0.000000   0.000000  -0.000000  -0.000000
    28  H    0.000000  -0.000000  -0.000000  -0.000000   0.000000  -0.000000
               7          8          9         10         11         12
     1  C   -0.000000  -0.000064   0.005090   0.007046  -0.000110  -0.000022
     2  N    0.000002   0.010594  -0.031135  -0.087418   0.006582   0.001184
     3  C    0.000614  -0.079057   0.449985   0.027526   0.008978   0.000101
     4  C    0.005861  -0.060006  -0.049934   0.016870  -0.000120   0.000008
     5  C   -0.055974  -0.033931  -0.041879   0.000217   0.000006   0.000000
     6  C    0.252160   0.467295   0.006164   0.008239   0.000187   0.000004
     7  Br  34.988115  -0.056861   0.004077  -0.000175   0.000001  -0.000000
     8  C   -0.056861   5.231300   0.442535  -0.102925  -0.005241  -0.000023
     9  C    0.004077   0.442535   5.013341   0.225292  -0.092089   0.000241
    10  C   -0.000175  -0.102925   0.225292   5.083756   0.470273  -0.047123
    11  N    0.000001  -0.005241  -0.092089   0.470273   7.046683   0.377624
    12  C   -0.000000  -0.000023   0.000241  -0.047123   0.377624   4.776165
    13  C   -0.000000  -0.000003  -0.000664  -0.000847  -0.070675   0.480007
    14  C    0.000000  -0.000000   0.000007  -0.000134   0.005851  -0.007329
    15  C    0.000000   0.000000  -0.000000   0.000122  -0.000079  -0.029260
    16  N   -0.000000  -0.000000   0.000028   0.000525   0.006148  -0.070053
    17  C   -0.000000   0.000007   0.004713  -0.027087  -0.060984   0.379827
    18  N   -0.000000  -0.000092   0.009294  -0.059229  -0.019404  -0.105032
    19  C    0.000003   0.018414  -0.018576   0.277086  -0.100657  -0.007781
    20  H    0.000000  -0.000009  -0.000154  -0.000029   0.000002   0.000001
    21  H    0.000000  -0.000009  -0.000153  -0.000026   0.000002   0.000001
    22  H   -0.000000   0.000009  -0.000036   0.000455  -0.000015   0.000049
    23  H   -0.000137   0.000648   0.004520  -0.000294   0.000001  -0.000000
    24  H   -0.002419   0.005366   0.000631   0.000008  -0.000000   0.000000
    25  H   -0.001932   0.361219  -0.036352  -0.008370   0.003973  -0.000009
    26  H    0.000000   0.000006  -0.000013   0.000676  -0.000157  -0.034652
    27  H    0.000000  -0.000000  -0.000000  -0.000001  -0.000090   0.004179
    28  H    0.000000  -0.000000   0.000000   0.000002   0.000011   0.000633
              13         14         15         16         17         18
     1  C    0.000000  -0.000000   0.000000   0.000006   0.000103  -0.008006
     2  N    0.000012   0.000000   0.000000  -0.000046   0.002130  -0.082403
     3  C    0.000008  -0.000000  -0.000000  -0.000002  -0.000276  -0.000275
     4  C   -0.000000   0.000000   0.000000  -0.000000  -0.000003  -0.000219
     5  C   -0.000000   0.000000   0.000000   0.000000   0.000000   0.000002
     6  C   -0.000000   0.000000   0.000000  -0.000000   0.000000  -0.000000
     7  Br  -0.000000   0.000000   0.000000  -0.000000  -0.000000  -0.000000
     8  C   -0.000003  -0.000000   0.000000  -0.000000   0.000007  -0.000092
     9  C   -0.000664   0.000007  -0.000000   0.000028   0.004713   0.009294
    10  C   -0.000847  -0.000134   0.000122   0.000525  -0.027087  -0.059229
    11  N   -0.070675   0.005851  -0.000079   0.006148  -0.060984  -0.019404
    12  C    0.480007  -0.007329  -0.029260  -0.070053   0.379827  -0.105032
    13  C    5.006807   0.534264  -0.031592  -0.043745  -0.066420   0.004136
    14  C    0.534264   4.994223   0.452359  -0.024463  -0.038560   0.000174
    15  C   -0.031592   0.452359   4.775807   0.493490  -0.054357   0.002767
    16  N   -0.043745  -0.024463   0.493490   6.853342   0.392981  -0.090559
    17  C   -0.066420  -0.038560  -0.054357   0.392981   4.694287   0.402950
    18  N    0.004136   0.000174   0.002767  -0.090559   0.402950   7.046504
    19  C    0.002806   0.000021   0.000030  -0.001271  -0.050634   0.422105
    20  H   -0.000000   0.000000  -0.000000  -0.000000  -0.000001   0.000395
    21  H   -0.000000   0.000000  -0.000000  -0.000000  -0.000001   0.000395
    22  H   -0.000000  -0.000000   0.000001  -0.000047   0.000110   0.018078
    23  H    0.000000  -0.000000   0.000000  -0.000000  -0.000000   0.000001
    24  H   -0.000000   0.000000  -0.000000  -0.000000   0.000000  -0.000000
    25  H   -0.000003   0.000000   0.000000  -0.000000   0.000002   0.000000
    26  H    0.349002  -0.047947   0.005267  -0.000630   0.006148  -0.000149
    27  H   -0.038314   0.351792  -0.036560   0.004854   0.000621   0.000017
    28  H    0.003359  -0.066536   0.379545  -0.055671   0.004584  -0.000099
              19         20         21         22         23         24
     1  C   -0.038114   0.375634   0.375582   0.375365   0.004774  -0.000002
     2  N    0.285842  -0.041825  -0.041836  -0.033913  -0.008376  -0.000102
     3  C   -0.099695  -0.000691  -0.000687   0.002029  -0.033475   0.002887
     4  C    0.001803   0.002745   0.002762   0.000069   0.351198  -0.038486
     5  C   -0.000081   0.000000  -0.000000   0.000002  -0.039610   0.360006
     6  C   -0.000343  -0.000001  -0.000001  -0.000000   0.003794  -0.039329
     7  Br   0.000003   0.000000   0.000000  -0.000000  -0.000137  -0.002419
     8  C    0.018414  -0.000009  -0.000009   0.000009   0.000648   0.005366
     9  C   -0.018576  -0.000154  -0.000153  -0.000036   0.004520   0.000631
    10  C    0.277086  -0.000029  -0.000026   0.000455  -0.000294   0.000008
    11  N   -0.100657   0.000002   0.000002  -0.000015   0.000001  -0.000000
    12  C   -0.007781   0.000001   0.000001   0.000049  -0.000000   0.000000
    13  C    0.002806  -0.000000  -0.000000  -0.000000   0.000000  -0.000000
    14  C    0.000021   0.000000   0.000000  -0.000000  -0.000000   0.000000
    15  C    0.000030  -0.000000  -0.000000   0.000001   0.000000  -0.000000
    16  N   -0.001271  -0.000000  -0.000000  -0.000047  -0.000000  -0.000000
    17  C   -0.050634  -0.000001  -0.000001   0.000110  -0.000000   0.000000
    18  N    0.422105   0.000395   0.000395   0.018078   0.000001  -0.000000
    19  C    4.760497   0.001025   0.001020  -0.002534   0.000005   0.000002
    20  H    0.001025   0.554447  -0.041829  -0.022771   0.000659  -0.000000
    21  H    0.001020  -0.041829   0.554468  -0.022723   0.000668  -0.000000
    22  H   -0.002534  -0.022771  -0.022723   0.469315  -0.000050  -0.000000
    23  H    0.000005   0.000659   0.000668  -0.000050   0.575564  -0.005320
    24  H    0.000002  -0.000000  -0.000000  -0.000000  -0.005320   0.559275
    25  H    0.000154  -0.000000  -0.000000  -0.000000   0.000018  -0.000145
    26  H    0.000042  -0.000000  -0.000000   0.000000   0.000000  -0.000000
    27  H   -0.000002   0.000000   0.000000  -0.000000   0.000000  -0.000000
    28  H   -0.000009  -0.000000  -0.000000  -0.000000  -0.000000  -0.000000
              25         26         27         28
     1  C    0.000003   0.000000  -0.000000   0.000000
     2  N   -0.000087  -0.000000  -0.000000  -0.000000
     3  C    0.004658  -0.000000   0.000000  -0.000000
     4  C    0.000064  -0.000000   0.000000  -0.000000
     5  C    0.005078   0.000000  -0.000000   0.000000
     6  C   -0.045249   0.000000  -0.000000  -0.000000
     7  Br  -0.001932   0.000000   0.000000   0.000000
     8  C    0.361219   0.000006  -0.000000  -0.000000
     9  C   -0.036352  -0.000013  -0.000000   0.000000
    10  C   -0.008370   0.000676  -0.000001   0.000002
    11  N    0.003973  -0.000157  -0.000090   0.000011
    12  C   -0.000009  -0.034652   0.004179   0.000633
    13  C   -0.000003   0.349002  -0.038314   0.003359
    14  C    0.000000  -0.047947   0.351792  -0.066536
    15  C    0.000000   0.005267  -0.036560   0.379545
    16  N   -0.000000  -0.000630   0.004854  -0.055671
    17  C    0.000002   0.006148   0.000621   0.004584
    18  N    0.000000  -0.000149   0.000017  -0.000099
    19  C    0.000154   0.000042  -0.000002  -0.000009
    20  H   -0.000000  -0.000000   0.000000  -0.000000
    21  H   -0.000000  -0.000000   0.000000  -0.000000
    22  H   -0.000000   0.000000  -0.000000  -0.000000
    23  H    0.000018   0.000000   0.000000  -0.000000
    24  H   -0.000145  -0.000000  -0.000000  -0.000000
    25  H    0.544080   0.000006  -0.000000  -0.000000
    26  H    0.000006   0.572556  -0.006169  -0.000170
    27  H   -0.000000  -0.006169   0.580684  -0.001556
    28  H   -0.000000  -0.000170  -0.001556   0.590431
 Mulliken charges:
               1
     1  C   -0.345822
     2  N   -0.605608
     3  C    0.331350
     4  C   -0.180388
     5  C   -0.153059
     6  C    0.068263
     7  Br  -0.133336
     8  C   -0.199170
     9  C    0.105067
    10  C    0.215565
    11  N   -0.576702
    12  C    0.281262
    13  C   -0.128137
    14  C   -0.153720
    15  C    0.042460
    16  N   -0.464886
    17  C    0.409860
    18  N   -0.541352
    19  C    0.548840
    20  H    0.172401
    21  H    0.172368
    22  H    0.216605
    23  H    0.145412
    24  H    0.157628
    25  H    0.172892
    26  H    0.156184
    27  H    0.140546
    28  H    0.145476
 Sum of Mulliken charges =  -0.00000
 Mulliken charges with hydrogens summed into heavy atoms:
               1
     1  C    0.215553
     2  N   -0.605608
     3  C    0.331350
     4  C   -0.034976
     5  C    0.004569
     6  C    0.068263
     7  Br  -0.133336
     8  C   -0.026278
     9  C    0.105067
    10  C    0.215565
    11  N   -0.576702
    12  C    0.281262
    13  C    0.028047
    14  C   -0.013174
    15  C    0.187936
    16  N   -0.464886
    17  C    0.409860
    18  N   -0.541352
    19  C    0.548840
 Electronic spatial extent (au):  <R**2>=           7997.4321
 Charge=              0.0000 electrons
 Dipole moment (field-independent basis, Debye):
    X=             -0.1797    Y=              1.3189    Z=              0.0023  Tot=              1.3311
 Quadrupole moment (field-independent basis, Debye-Ang):
   XX=           -123.1623   YY=           -104.6280   ZZ=           -121.1923
   XY=            -16.2199   XZ=              0.0055   YZ=              0.0055
 Traceless Quadrupole moment (field-independent basis, Debye-Ang):
   XX=             -6.8347   YY=             11.6995   ZZ=             -4.8648
   XY=            -16.2199   XZ=              0.0055   YZ=              0.0055
 Octapole moment (field-independent basis, Debye-Ang**2):
  XXX=            -98.6835  YYY=             -2.3419  ZZZ=              0.0034  XYY=            -41.7534
  XXY=            -69.9637  XXZ=              0.0081  XZZ=            -44.3940  YZZ=             -8.0497
  YYZ=              0.0197  XYZ=              0.0148
 Hexadecapole moment (field-independent basis, Debye-Ang**3):
 XXXX=          -7262.1092 YYYY=          -1679.4165 ZZZZ=           -128.1242 XXXY=           -239.0579
 XXXZ=              0.0530 YYYX=            102.1623 YYYZ=              0.0228 ZZZX=             -0.0171
 ZZZY=              0.0030 XXYY=          -1480.8093 XXZZ=          -1335.9438 YYZZ=           -345.8655
 XXYZ=              0.0101 YYXZ=              0.0415 ZZXY=             70.1648
 N-N= 1.622534551349D+03 E-N=-1.113729601487D+04  KE= 3.307487158977D+03
 No NMR shielding tensors so no spin-rotation constants.
 Leave Link  601 at Sun Jan 18 23:59:20 2026, MaxMem=  8053063680 cpu:               1.8 elap:               0.1
 (Enter /appl/Gaussian16/AVX_revB01/g16/l701.exe)
 ... and contract with generalized density number  0.
 Compute integral first derivatives.
 Leave Link  701 at Sun Jan 18 23:59:21 2026, MaxMem=  8053063680 cpu:               1.9 elap:               0.1
 (Enter /appl/Gaussian16/AVX_revB01/g16/l702.exe)
 L702 exits ... SP integral derivatives will be done elsewhere.
 Leave Link  702 at Sun Jan 18 23:59:21 2026, MaxMem=  8053063680 cpu:               0.4 elap:               0.0
 (Enter /appl/Gaussian16/AVX_revB01/g16/l703.exe)
 Integral derivatives from FoFJK, PRISM(SPDF).
 Compute integral first derivatives, UseDBF=F ICtDFT=           0.
 Calling FoFJK, ICntrl=      2127 FMM=F ISym2X=0 I1Cent= 0 IOpClX= 0 NMat=1 NMatS=1 NMatT=0.
 FoFJK:  IHMeth= 1 ICntrl=    2127 DoSepK=F KAlg= 0 I1Cent=           0 FoldK=F
 IRaf=         0 NMat=       1 IRICut=       1 DoRegI=T DoRafI=F ISym2E= 0 IDoP0=0 IntGTp=1.
 FoFCou: FMM=F IPFlag=           0 FMFlag=      100000 FMFlg1=         800
         NFxFlg=           0 DoJE=F BraDBF=F KetDBF=F FulRan=T
         wScrn=  0.000000 ICntrl=      2127 IOpCl=  0 I1Cent=           0 NGrid=           0
         NMat0=    1 NMatS0=      1 NMatT0=    0 NMatD0=    1 NMtDS0=    0 NMtDT0=    0
 Symmetry not used in FoFCou.
 Leave Link  703 at Sun Jan 18 23:59:26 2026, MaxMem=  8053063680 cpu:              82.7 elap:               5.2
 (Enter /appl/Gaussian16/AVX_revB01/g16/l716.exe)
 Dipole        =-7.06918200D-02 5.18892157D-01 9.23098793D-04
 ***** Axes restored to original set *****
 -------------------------------------------------------------------
 Center     Atomic                   Forces (Hartrees/Bohr)
 Number     Number              X              Y              Z
 -------------------------------------------------------------------
      1        6          -0.001190044   -0.005055750    0.000796974
      2        7          -0.003828719   -0.005859843    0.000930107
      3        6          -0.003877046    0.008074052   -0.000970750
      4        6           0.000178513   -0.006573537    0.000923526
      5        6          -0.005482385    0.001587653   -0.000013862
      6        6          -0.003568312    0.007974073   -0.001013542
      7       35          -0.002257393    0.003612861   -0.000435340
      8        6           0.001202288    0.001045441   -0.000204324
      9        6          -0.000433837   -0.000635179    0.000112065
     10        6          -0.002330034   -0.005660988    0.000913437
     11        7          -0.003284388    0.011999688   -0.001616925
     12        6           0.003357880   -0.000860011   -0.000003026
     13        6           0.000185110    0.001118156   -0.000171753
     14        6           0.004468463    0.004300291   -0.000798595
     15        6           0.009086098    0.001581002   -0.000586310
     16        7          -0.002869471   -0.017325746    0.002623279
     17        6          -0.000733484    0.005600213   -0.000786481
     18        7          -0.008693241   -0.009877532    0.001754911
     19        6           0.017155051    0.004756253   -0.001324030
     20        1          -0.001316519   -0.001366311    0.002313541
     21        1          -0.001476918   -0.001933616   -0.001729649
     22        1           0.000991370   -0.001967462    0.000251177
     23        1          -0.002846451   -0.004240093    0.000731350
     24        1          -0.003819605    0.000104062    0.000133398
     25        1           0.001503151    0.004020452   -0.000637394
     26        1          -0.000280005    0.004401181   -0.000622709
     27        1           0.004454506    0.002247194   -0.000500212
     28        1           0.005705422   -0.001066505   -0.000068865
 -------------------------------------------------------------------
 Cartesian Forces:  Max     0.017325746 RMS     0.004461387
 Leave Link  716 at Sun Jan 18 23:59:26 2026, MaxMem=  8053063680 cpu:               0.4 elap:               0.1
 (Enter /appl/Gaussian16/AVX_revB01/g16/l103.exe)

 GradGradGradGradGradGradGradGradGradGradGradGradGradGradGradGradGradGrad
 Berny optimization.
 FormGI is forming the generalized inverse of G from B-inverse, IUseBI=4.
 Internal  Forces:  Max     0.018839483 RMS     0.004306391
 Search for a local minimum.
 Step number   1 out of a maximum of  166
 All quantities printed in internal units (Hartrees-Bohrs-Radians)
 RMS Force = .43064D-02 SwitMx=.10000D-02 MixMth= 1
 Mixed Optimization -- RFO/linear search
 Second derivative matrix not updated -- first step.
 ITU=  0
     Eigenvalues ---    0.01205   0.01683   0.01784   0.01916   0.01943
     Eigenvalues ---    0.01974   0.01996   0.02040   0.02083   0.02115
     Eigenvalues ---    0.02166   0.02188   0.02217   0.02234   0.02258
     Eigenvalues ---    0.02263   0.02270   0.02291   0.02297   0.02303
     Eigenvalues ---    0.02358   0.02604   0.02667   0.07595   0.07942
     Eigenvalues ---    0.16000   0.16000   0.16000   0.16000   0.16000
     Eigenvalues ---    0.16000   0.16000   0.16000   0.16000   0.17946
     Eigenvalues ---    0.22093   0.22449   0.23360   0.23535   0.24630
     Eigenvalues ---    0.24910   0.25000   0.25000   0.25000   0.25000
     Eigenvalues ---    0.25000   0.25000   0.25000   0.34114   0.34584
     Eigenvalues ---    0.34585   0.35011   0.35656   0.36029   0.36103
     Eigenvalues ---    0.36124   0.36196   0.36239   0.37356   0.37981
     Eigenvalues ---    0.39794   0.40032   0.42586   0.43588   0.43894
     Eigenvalues ---    0.45171   0.47471   0.47587   0.48322   0.48477
     Eigenvalues ---    0.49510   0.51254   0.52481   0.53741   0.55271
     Eigenvalues ---    0.63213   0.64007   0.64261
 RFO step:  Lambda=-5.96670066D-03 EMin= 1.20538512D-02
 Linear search not attempted -- first point.
 Iteration  1 RMS(Cart)=  0.02660658 RMS(Int)=  0.00005003
 Iteration  2 RMS(Cart)=  0.00008160 RMS(Int)=  0.00000772
 Iteration  3 RMS(Cart)=  0.00000001 RMS(Int)=  0.00000772
 ITry= 1 IFail=0 DXMaxC= 1.24D-01 DCOld= 1.00D+10 DXMaxT= 3.00D-01 DXLimC= 3.00D+00 Rises=F
 Variable       Old X    -DE/DX   Delta X   Delta X   Delta X     New X
                                 (Linear)    (Quad)   (Total)
    R1        2.71510   0.01086   0.00000   0.02672   0.02672   2.74182
    R2        2.06355   0.00280   0.00000   0.00797   0.00797   2.07152
    R3        2.06356   0.00280   0.00000   0.00796   0.00796   2.07152
    R4        2.05658   0.00186   0.00000   0.00522   0.00522   2.06179
    R5        2.60469   0.01429   0.00000   0.02986   0.02986   2.63455
    R6        2.56673   0.01728   0.00000   0.03350   0.03351   2.60024
    R7        2.62091   0.00875   0.00000   0.01800   0.01799   2.63890
    R8        2.67825   0.00427   0.00000   0.00835   0.00833   2.68658
    R9        2.61290   0.01199   0.00000   0.02491   0.02492   2.63782
   R10        2.03776   0.00515   0.00000   0.01400   0.01400   2.05176
   R11        2.63155   0.00915   0.00000   0.01987   0.01988   2.65144
   R12        2.03921   0.00382   0.00000   0.01042   0.01042   2.04962
   R13        3.60240   0.00428   0.00000   0.02309   0.02309   3.62549
   R14        2.61110   0.00894   0.00000   0.01817   0.01817   2.62928
   R15        2.61991   0.01021   0.00000   0.02047   0.02047   2.64038
   R16        2.03710   0.00428   0.00000   0.01163   0.01163   2.04873
   R17        2.71330   0.01065   0.00000   0.02398   0.02398   2.73728
   R18        2.46755   0.00982   0.00000   0.01459   0.01458   2.48213
   R19        2.73040   0.00467   0.00000   0.01066   0.01067   2.74107
   R20        2.55443   0.01277   0.00000   0.02345   0.02345   2.57788
   R21        2.66242   0.00806   0.00000   0.01655   0.01654   2.67896
   R22        2.71140   0.00837   0.00000   0.02086   0.02087   2.73227
   R23        2.58550   0.00789   0.00000   0.01431   0.01431   2.59981
   R24        2.04037   0.00445   0.00000   0.01215   0.01215   2.05252
   R25        2.65974   0.00929   0.00000   0.02112   0.02112   2.68086
   R26        2.03888   0.00501   0.00000   0.01365   0.01365   2.05254
   R27        2.46270   0.01884   0.00000   0.02912   0.02913   2.49183
   R28        2.04623   0.00537   0.00000   0.01480   0.01480   2.06103
   R29        2.53773   0.01527   0.00000   0.02753   0.02754   2.56527
   R30        2.54991   0.01370   0.00000   0.02485   0.02486   2.57477
   R31        2.47094   0.00494   0.00000   0.00724   0.00723   2.47817
    A1        1.92995   0.00104   0.00000   0.00636   0.00634   1.93629
    A2        1.92987   0.00102   0.00000   0.00628   0.00625   1.93613
    A3        1.87387   0.00130   0.00000   0.00762   0.00760   1.88147
    A4        1.90497  -0.00100   0.00000  -0.00564  -0.00566   1.89931
    A5        1.91246  -0.00119   0.00000  -0.00739  -0.00741   1.90505
    A6        1.91248  -0.00118   0.00000  -0.00730  -0.00733   1.90516
    A7        2.20982  -0.00066   0.00000  -0.00469  -0.00469   2.20513
    A8        2.17903   0.00110   0.00000   0.00220   0.00220   2.18124
    A9        1.89433  -0.00044   0.00000   0.00249   0.00249   1.89682
   A10        2.25269  -0.00008   0.00000   0.00056   0.00058   2.25327
   A11        1.92167  -0.00069   0.00000  -0.00163  -0.00164   1.92003
   A12        2.10883   0.00077   0.00000   0.00107   0.00106   2.10989
   A13        2.06028   0.00009   0.00000   0.00076   0.00075   2.06103
   A14        2.11989   0.00027   0.00000   0.00149   0.00150   2.12139
   A15        2.10301  -0.00036   0.00000  -0.00225  -0.00225   2.10076
   A16        2.10616  -0.00004   0.00000   0.00153   0.00154   2.10769
   A17        2.09350   0.00007   0.00000  -0.00048  -0.00049   2.09302
   A18        2.08353  -0.00003   0.00000  -0.00105  -0.00105   2.08248
   A19        2.06826   0.00132   0.00000   0.00489   0.00488   2.07314
   A20        2.13590  -0.00271   0.00000  -0.01008  -0.01007   2.12583
   A21        2.07902   0.00139   0.00000   0.00519   0.00519   2.08421
   A22        2.04679   0.00266   0.00000   0.00986   0.00986   2.05665
   A23        2.12866  -0.00204   0.00000  -0.00921  -0.00921   2.11945
   A24        2.10774  -0.00062   0.00000  -0.00065  -0.00065   2.10709
   A25        2.10841  -0.00077   0.00000  -0.00313  -0.00314   2.10527
[...]
 Alpha  occ. eigenvalues --   -0.75685  -0.75051  -0.71401  -0.68396  -0.65327
 Alpha  occ. eigenvalues --   -0.63003  -0.61396  -0.59578  -0.57265  -0.55599
 Alpha  occ. eigenvalues --   -0.51834  -0.51220  -0.49007  -0.48892  -0.47680
 Alpha  occ. eigenvalues --   -0.47137  -0.46006  -0.45645  -0.44446  -0.44247
 Alpha  occ. eigenvalues --   -0.41352  -0.41140  -0.41081  -0.39110  -0.37763
 Alpha  occ. eigenvalues --   -0.37762  -0.36742  -0.36350  -0.33614  -0.32029
 Alpha  occ. eigenvalues --   -0.29692  -0.29316  -0.28898  -0.28178  -0.26522
 Alpha  occ. eigenvalues --   -0.24387  -0.24002  -0.22019
 Alpha virt. eigenvalues --   -0.08564  -0.03340  -0.00879  -0.00293   0.00387
 Alpha virt. eigenvalues --    0.01036   0.08958   0.09199   0.10282   0.11395
 Alpha virt. eigenvalues --    0.13889   0.14199   0.14303   0.15526   0.15795
 Alpha virt. eigenvalues --    0.16611   0.17286   0.17492   0.18913   0.20193
 Alpha virt. eigenvalues --    0.20888   0.22896   0.23441   0.25023   0.25983
 Alpha virt. eigenvalues --    0.27448   0.28484   0.30002   0.31787   0.32348
 Alpha virt. eigenvalues --    0.34177   0.36049   0.36899   0.37920   0.40485
 Alpha virt. eigenvalues --    0.42466   0.44165   0.44484   0.45473   0.46189
 Alpha virt. eigenvalues --    0.46333   0.47482   0.47755   0.48400   0.49031
 Alpha virt. eigenvalues --    0.49420   0.49984   0.50799   0.52241   0.52771
 Alpha virt. eigenvalues --    0.53587   0.53734   0.54340   0.56268   0.56525
 Alpha virt. eigenvalues --    0.58036   0.58212   0.58832   0.58942   0.59158
 Alpha virt. eigenvalues --    0.59452   0.62524   0.62672   0.63367   0.64059
 Alpha virt. eigenvalues --    0.64710   0.65851   0.66163   0.66196   0.68566
 Alpha virt. eigenvalues --    0.69487   0.70785   0.71965   0.72175   0.73488
 Alpha virt. eigenvalues --    0.76787   0.78071   0.78561   0.79124   0.80182
 Alpha virt. eigenvalues --    0.80857   0.81531   0.82296   0.82783   0.83272
 Alpha virt. eigenvalues --    0.84047   0.84437   0.86484   0.87080   0.88144
 Alpha virt. eigenvalues --    0.88875   0.89658   0.90191   0.92160   0.92399
 Alpha virt. eigenvalues --    0.93992   0.94392   0.94969   0.96551   0.98077
 Alpha virt. eigenvalues --    0.98745   1.00782   1.02942   1.06043   1.07033
 Alpha virt. eigenvalues --    1.09066   1.12838   1.13660   1.14646   1.17419
 Alpha virt. eigenvalues --    1.18319   1.19591   1.20479   1.23468   1.25341
 Alpha virt. eigenvalues --    1.25445   1.27864   1.29834   1.30654   1.31919
 Alpha virt. eigenvalues --    1.31935   1.33367   1.36985   1.38741   1.38998
 Alpha virt. eigenvalues --    1.41006   1.43237   1.43392   1.45944   1.46362
 Alpha virt. eigenvalues --    1.47249   1.48761   1.49308   1.50358   1.50492
 Alpha virt. eigenvalues --    1.54221   1.57073   1.59976   1.63357   1.65363
 Alpha virt. eigenvalues --    1.67644   1.70518   1.71843   1.73916   1.76009
 Alpha virt. eigenvalues --    1.77766   1.79081   1.79608   1.80316   1.82135
 Alpha virt. eigenvalues --    1.83774   1.84777   1.85348   1.86599   1.89728
 Alpha virt. eigenvalues --    1.90634   1.92537   1.94482   1.95019   1.96927
 Alpha virt. eigenvalues --    1.99544   2.01376   2.02779   2.02835   2.05041
 Alpha virt. eigenvalues --    2.07989   2.10898   2.11692   2.12801   2.13722
 Alpha virt. eigenvalues --    2.16270   2.16967   2.18548   2.19644   2.21254
 Alpha virt. eigenvalues --    2.21406   2.23732   2.24934   2.26426   2.27442
 Alpha virt. eigenvalues --    2.31837   2.32493   2.33370   2.34713   2.37471
 Alpha virt. eigenvalues --    2.37726   2.40657   2.41832   2.43475   2.47736
 Alpha virt. eigenvalues --    2.51082   2.51422   2.52705   2.59012   2.60014
 Alpha virt. eigenvalues --    2.60577   2.61601   2.63757   2.65291   2.66580
 Alpha virt. eigenvalues --    2.66709   2.68590   2.70679   2.72615   2.75581
 Alpha virt. eigenvalues --    2.75926   2.79062   2.81272   2.83972   2.86297
 Alpha virt. eigenvalues --    2.90015   2.97450   2.99536   3.02387   3.06233
 Alpha virt. eigenvalues --    3.22901   3.26042   3.35729   3.45432   3.53092
 Alpha virt. eigenvalues --    4.02996   4.05771   4.06243   4.07886   4.10622
 Alpha virt. eigenvalues --    4.14287   4.16419   4.20078   4.25430   4.30251
 Alpha virt. eigenvalues --    4.35879   4.40596   4.43050   4.51608   4.63206
 Alpha virt. eigenvalues --    4.67959   4.76529   4.85438   8.60600  72.80523
          Condensed to atoms (all electrons):
               1          2          3          4          5          6
     1  C    4.999585   0.289770  -0.043572  -0.002856  -0.000131   0.000010
     2  N    0.289770   7.151920   0.278662  -0.092506   0.005679  -0.000272
     3  C   -0.043572   0.278662   4.697873   0.481019  -0.000544  -0.034986
     4  C   -0.002856  -0.092506   0.481019   5.095599   0.482648  -0.020284
     5  C   -0.000131   0.005679  -0.000544   0.482648   4.961753   0.508554
     6  C    0.000010  -0.000272  -0.034986  -0.020284   0.508554   4.826322
     7  Br  -0.000000   0.000002   0.000537   0.005368  -0.054553   0.253902
     8  C   -0.000066   0.009807  -0.075203  -0.056413  -0.033886   0.469717
     9  C    0.004529  -0.031598   0.455280  -0.048749  -0.039881   0.002282
    10  C    0.006686  -0.084588   0.021988   0.014802   0.000171   0.007407
    11  N   -0.000097   0.006358   0.008176  -0.000118   0.000006   0.000173
    12  C   -0.000018   0.001059   0.000051   0.000006   0.000000   0.000003
    13  C    0.000000   0.000009   0.000006  -0.000000  -0.000000  -0.000000
    14  C   -0.000000   0.000000  -0.000000   0.000000   0.000000   0.000000
    15  C    0.000000   0.000000  -0.000000   0.000000   0.000000  -0.000000
    16  N    0.000005  -0.000047  -0.000001  -0.000000   0.000000  -0.000000
    17  C    0.000059   0.002426  -0.000245  -0.000002   0.000000   0.000000
    18  N   -0.006928  -0.080244   0.000012  -0.000180   0.000002  -0.000000
    19  C   -0.035426   0.279356  -0.092825   0.002378  -0.000116  -0.000266
    20  H    0.374913  -0.040810  -0.000676   0.002544  -0.000000  -0.000001
    21  H    0.374883  -0.040813  -0.000679   0.002555  -0.000000  -0.000001
    22  H    0.375648  -0.032790   0.001979   0.000061   0.000001  -0.000000
    23  H    0.004494  -0.007784  -0.033016   0.351852  -0.038745   0.003570
    24  H   -0.000001  -0.000091   0.002753  -0.037433   0.359172  -0.038464
    25  H    0.000003  -0.000083   0.004466   0.000087   0.004875  -0.044394
    26  H    0.000000  -0.000000  -0.000000  -0.000000   0.000000   0.000000
    27  H   -0.000000  -0.000000   0.000000   0.000000  -0.000000  -0.000000
    28  H    0.000000  -0.000000  -0.000000  -0.000000   0.000000  -0.000000
               7          8          9         10         11         12
     1  C   -0.000000  -0.000066   0.004529   0.006686  -0.000097  -0.000018
     2  N    0.000002   0.009807  -0.031598  -0.084588   0.006358   0.001059
     3  C    0.000537  -0.075203   0.455280   0.021988   0.008176   0.000051
     4  C    0.005368  -0.056413  -0.048749   0.014802  -0.000118   0.000006
     5  C   -0.054553  -0.033886  -0.039881   0.000171   0.000006   0.000000
     6  C    0.253902   0.469717   0.002282   0.007407   0.000173   0.000003
     7  Br  34.978851  -0.055216   0.003917  -0.000146   0.000001  -0.000000
     8  C   -0.055216   5.214501   0.446016  -0.094432  -0.004625  -0.000037
     9  C    0.003917   0.446016   4.989673   0.243149  -0.088440   0.000991
    10  C   -0.000146  -0.094432   0.243149   5.062800   0.460067  -0.046164
    11  N    0.000001  -0.004625  -0.088440   0.460067   7.050636   0.370270
    12  C   -0.000000  -0.000037   0.000991  -0.046164   0.370270   4.779377
    13  C   -0.000000  -0.000003  -0.000570  -0.000215  -0.067802   0.481026
    14  C    0.000000  -0.000000   0.000006  -0.000153   0.005452  -0.009942
    15  C    0.000000   0.000000  -0.000000   0.000109  -0.000061  -0.029228
    16  N   -0.000000  -0.000000   0.000023   0.000468   0.005300  -0.065760
    17  C   -0.000000   0.000009   0.004071  -0.027555  -0.058710   0.376252
    18  N   -0.000000  -0.000075   0.008584  -0.057127  -0.019088  -0.099526
    19  C    0.000002   0.016381  -0.023424   0.282818  -0.095588  -0.009106
    20  H    0.000000  -0.000008  -0.000132  -0.000031   0.000002   0.000000
    21  H    0.000000  -0.000008  -0.000132  -0.000030   0.000002   0.000000
    22  H   -0.000000   0.000008  -0.000041   0.000419  -0.000012   0.000038
    23  H   -0.000125   0.000567   0.004208  -0.000259   0.000001  -0.000000
    24  H   -0.001964   0.005046   0.000616   0.000007  -0.000000   0.000000
    25  H   -0.001684   0.359639  -0.035041  -0.007742   0.003760  -0.000013
    26  H    0.000000   0.000005  -0.000012   0.000610   0.000111  -0.034021
    27  H    0.000000  -0.000000  -0.000000  -0.000001  -0.000082   0.003943
    28  H    0.000000  -0.000000   0.000000   0.000002   0.000009   0.000549
              13         14         15         16         17         18
     1  C    0.000000  -0.000000   0.000000   0.000005   0.000059  -0.006928
     2  N    0.000009   0.000000   0.000000  -0.000047   0.002426  -0.080244
     3  C    0.000006  -0.000000  -0.000000  -0.000001  -0.000245   0.000012
     4  C   -0.000000   0.000000   0.000000  -0.000000  -0.000002  -0.000180
     5  C   -0.000000   0.000000   0.000000   0.000000   0.000000   0.000002
     6  C   -0.000000   0.000000  -0.000000  -0.000000   0.000000  -0.000000
     7  Br  -0.000000   0.000000   0.000000  -0.000000  -0.000000  -0.000000
     8  C   -0.000003  -0.000000   0.000000  -0.000000   0.000009  -0.000075
     9  C   -0.000570   0.000006  -0.000000   0.000023   0.004071   0.008584
    10  C   -0.000215  -0.000153   0.000109   0.000468  -0.027555  -0.057127
    11  N   -0.067802   0.005452  -0.000061   0.005300  -0.058710  -0.019088
    12  C    0.481026  -0.009942  -0.029228  -0.065760   0.376252  -0.099526
    13  C    5.000292   0.532785  -0.031075  -0.040179  -0.063822   0.004018
    14  C    0.532785   4.994749   0.449428  -0.023719  -0.037495   0.000118
    15  C   -0.031075   0.449428   4.790319   0.478647  -0.051172   0.003075
    16  N   -0.040179  -0.023719   0.478647   6.863624   0.386689  -0.086148
    17  C   -0.063822  -0.037495  -0.051172   0.386689   4.705222   0.395024
    18  N    0.004018   0.000118   0.003075  -0.086148   0.395024   7.039868
    19  C    0.002459   0.000032  -0.000012  -0.000775  -0.048881   0.422793
    20  H   -0.000000   0.000000  -0.000000  -0.000000  -0.000000   0.000355
    21  H   -0.000000   0.000000  -0.000000  -0.000000  -0.000000   0.000355
    22  H   -0.000000  -0.000000   0.000001  -0.000034   0.000035   0.016474
    23  H    0.000000  -0.000000   0.000000  -0.000000  -0.000000   0.000001
    24  H   -0.000000   0.000000  -0.000000  -0.000000   0.000000  -0.000000
    25  H   -0.000003   0.000000   0.000000  -0.000000   0.000002   0.000000
    26  H    0.348106  -0.046486   0.004993  -0.000531   0.005836  -0.000134
    27  H   -0.037285   0.352001  -0.035565   0.004425   0.000566   0.000014
    28  H    0.003439  -0.064808   0.378339  -0.053723   0.004590  -0.000095
              19         20         21         22         23         24
     1  C   -0.035426   0.374913   0.374883   0.375648   0.004494  -0.000001
     2  N    0.279356  -0.040810  -0.040813  -0.032790  -0.007784  -0.000091
     3  C   -0.092825  -0.000676  -0.000679   0.001979  -0.033016   0.002753
     4  C    0.002378   0.002544   0.002555   0.000061   0.351852  -0.037433
     5  C   -0.000116  -0.000000  -0.000000   0.000001  -0.038745   0.359172
     6  C   -0.000266  -0.000001  -0.000001  -0.000000   0.003570  -0.038464
     7  Br   0.000002   0.000000   0.000000  -0.000000  -0.000125  -0.001964
     8  C    0.016381  -0.000008  -0.000008   0.000008   0.000567   0.005046
     9  C   -0.023424  -0.000132  -0.000132  -0.000041   0.004208   0.000616
    10  C    0.282818  -0.000031  -0.000030   0.000419  -0.000259   0.000007
    11  N   -0.095588   0.000002   0.000002  -0.000012   0.000001  -0.000000
    12  C   -0.009106   0.000000   0.000000   0.000038  -0.000000   0.000000
    13  C    0.002459  -0.000000  -0.000000  -0.000000   0.000000  -0.000000
    14  C    0.000032   0.000000   0.000000  -0.000000  -0.000000   0.000000
    15  C   -0.000012  -0.000000  -0.000000   0.000001   0.000000  -0.000000
    16  N   -0.000775  -0.000000  -0.000000  -0.000034  -0.000000  -0.000000
    17  C   -0.048881  -0.000000  -0.000000   0.000035  -0.000000   0.000000
    18  N    0.422793   0.000355   0.000355   0.016474   0.000001  -0.000000
    19  C    4.747090   0.000979   0.000981  -0.002377   0.000005   0.000002
    20  H    0.000979   0.555019  -0.041740  -0.023275   0.000647  -0.000000
    21  H    0.000981  -0.041740   0.555022  -0.023242   0.000653  -0.000000
    22  H   -0.002377  -0.023275  -0.023242   0.471740  -0.000048  -0.000000
    23  H    0.000005   0.000647   0.000653  -0.000048   0.571638  -0.004960
    24  H    0.000002  -0.000000  -0.000000  -0.000000  -0.004960   0.556566
    25  H    0.000123  -0.000000  -0.000000  -0.000000   0.000016  -0.000141
    26  H    0.000035  -0.000000  -0.000000   0.000000   0.000000  -0.000000
    27  H   -0.000002   0.000000   0.000000  -0.000000   0.000000  -0.000000
    28  H   -0.000007  -0.000000  -0.000000  -0.000000  -0.000000  -0.000000
              25         26         27         28
     1  C    0.000003   0.000000  -0.000000   0.000000
     2  N   -0.000083  -0.000000  -0.000000  -0.000000
     3  C    0.004466  -0.000000   0.000000  -0.000000
     4  C    0.000087  -0.000000   0.000000  -0.000000
     5  C    0.004875   0.000000  -0.000000   0.000000
     6  C   -0.044394   0.000000  -0.000000  -0.000000
     7  Br  -0.001684   0.000000   0.000000   0.000000
     8  C    0.359639   0.000005  -0.000000  -0.000000
     9  C   -0.035041  -0.000012  -0.000000   0.000000
    10  C   -0.007742   0.000610  -0.000001   0.000002
    11  N    0.003760   0.000111  -0.000082   0.000009
    12  C   -0.000013  -0.034021   0.003943   0.000549
    13  C   -0.000003   0.348106  -0.037285   0.003439
    14  C    0.000000  -0.046486   0.352001  -0.064808
    15  C    0.000000   0.004993  -0.035565   0.378339
    16  N   -0.000000  -0.000531   0.004425  -0.053723
    17  C    0.000002   0.005836   0.000566   0.004590
    18  N    0.000000  -0.000134   0.000014  -0.000095
    19  C    0.000123   0.000035  -0.000002  -0.000007
    20  H   -0.000000  -0.000000   0.000000  -0.000000
    21  H   -0.000000  -0.000000   0.000000  -0.000000
    22  H   -0.000000   0.000000  -0.000000  -0.000000
    23  H    0.000016   0.000000   0.000000  -0.000000
    24  H   -0.000141  -0.000000  -0.000000  -0.000000
    25  H    0.541914   0.000005  -0.000000  -0.000000
    26  H    0.000005   0.569272  -0.005745  -0.000162
    27  H   -0.000000  -0.005745   0.576152  -0.001509
    28  H   -0.000000  -0.000162  -0.001509   0.585840
 Mulliken charges:
               1
     1  C   -0.341490
     2  N   -0.613422
     3  C    0.328946
     4  C   -0.180376
     5  C   -0.155004
     6  C    0.066731
     7  Br  -0.128892
     8  C   -0.201724
     9  C    0.104672
    10  C    0.216939
    11  N   -0.575701
    12  C    0.280250
    13  C   -0.131185
    14  C   -0.151968
    15  C    0.042201
    16  N   -0.468263
    17  C    0.407102
    18  N   -0.541147
    19  C    0.553372
    20  H    0.172215
    21  H    0.172195
    22  H    0.215417
    23  H    0.147286
    24  H    0.158892
    25  H    0.174211
    26  H    0.158118
    27  H    0.143088
    28  H    0.147537
 Sum of Mulliken charges =  -0.00000
 Mulliken charges with hydrogens summed into heavy atoms:
               1
     1  C    0.218337
     2  N   -0.613422
     3  C    0.328946
     4  C   -0.033091
     5  C    0.003888
     6  C    0.066731
     7  Br  -0.128892
     8  C   -0.027513
     9  C    0.104672
    10  C    0.216939
    11  N   -0.575701
    12  C    0.280250
    13  C    0.026932
    14  C   -0.008880
    15  C    0.189739
    16  N   -0.468263
    17  C    0.407102
    18  N   -0.541147
    19  C    0.553372
 Electronic spatial extent (au):  <R**2>=           8103.5725
 Charge=             -0.0000 electrons
 Dipole moment (field-independent basis, Debye):
    X=             -0.2065    Y=              1.2335    Z=              0.0010  Tot=              1.2507
 Quadrupole moment (field-independent basis, Debye-Ang):
   XX=           -122.7911   YY=           -104.3699   ZZ=           -121.6461
   XY=            -16.6541   XZ=              0.0019   YZ=              0.0028
 Traceless Quadrupole moment (field-independent basis, Debye-Ang):
   XX=             -6.5220   YY=             11.8991   ZZ=             -5.3771
   XY=            -16.6541   XZ=              0.0019   YZ=              0.0028
 Octapole moment (field-independent basis, Debye-Ang**2):
  XXX=            -99.6710  YYY=             -2.0179  ZZZ=              0.0039  XYY=            -41.5062
  XXY=            -73.2397  XXZ=              0.0086  XZZ=            -45.2552  YZZ=             -8.2948
  YYZ=              0.0108  XYZ=              0.0032
 Hexadecapole moment (field-independent basis, Debye-Ang**3):
 XXXX=          -7340.1411 YYYY=          -1701.2265 ZZZZ=           -128.9482 XXXY=           -256.2687
 XXXZ=              0.0223 YYYX=            102.7041 YYYZ=              0.0155 ZZZX=             -0.0195
 ZZZY=             -0.0018 XXYY=          -1495.8606 XXZZ=          -1356.9230 YYZZ=           -352.3382
 XXYZ=             -0.0026 YYXZ=              0.0111 ZZXY=             72.0747
 N-N= 1.611189928314D+03 E-N=-1.111409875229D+04  KE= 3.306855305296D+03
 No NMR shielding tensors so no spin-rotation constants.
 Leave Link  601 at Mon Jan 19 00:00:38 2026, MaxMem=  8053063680 cpu:               1.9 elap:               0.2
 (Enter /appl/Gaussian16/AVX_revB01/g16/l9999.exe)
 1\1\GINC-CNODE14\FOpt\RB3LYP\6-31G(d)\C14H9Br1N4\JUNHKIM\19-Jan-2026\0
 \\#P b3lyp/6-31g* opt SCF=XQC\\Gaussian input prepared by ASE\\0,1\C,-
 1.4719685582,-2.7299395705,0.4517879313\N,-1.136187766,-1.3352860496,0
 .2380024752\C,-2.0359609676,-0.2758433858,0.1199147461\C,-3.429478745,
 -0.2998686824,0.1779554595\C,-4.1109656781,0.9082190738,0.0298963526\C
 ,-3.4106784507,2.1066304126,-0.1708273373\Br,-4.4031393219,3.731422113
 4,-0.3669557419\C,-2.0220112035,2.1440859062,-0.2305948821\C,-1.332210
 735,0.9399050953,-0.0834622537\C,0.0734159475,0.5937027158,-0.08845899
 08\N,1.1515927218,1.3285712779,-0.2370076562\C,2.3272932124,0.63495982
 07,-0.1828503337\C,3.5502583556,1.3316630388,-0.3315456637\C,4.7306183
 234,0.6286820361,-0.2762618861\C,4.6738077842,-0.7725595837,-0.0715066
 767\N,3.5611452212,-1.4671692167,0.072561339\C,2.3840412031,-0.7924306
 464,0.0212466674\N,1.2502254329,-1.5362500406,0.173306133\C,0.14442090
 6,-0.8385113387,0.1158648098\H,-2.0157694395,-2.8587827429,1.39456707\
 H,-2.0862676481,-3.1123916907,-0.371322568\H,-0.5374025461,-3.29121908
 48,0.4951364546\H,-3.9780943537,-1.2233018657,0.3330188877\H,-5.194509
 4275,0.925210958,0.0698546341\H,-1.4886650347,3.0750073463,-0.38610474
 09\H,3.5138351893,2.4061650107,-0.4854262879\H,5.691371772,1.122345660
 5,-0.3853183522\H,5.601284807,-1.3430155678,-0.0254675891\\Version=ES6
 4L-G16RevB.01\State=1-A\HF=-3329.6500382\RMSD=5.459e-09\RMSF=1.188e-04
 \Dipole=-0.2749676,-0.4022541,0.0685185\Quadrupole=6.8338267,-3.020653
 3,-3.8131734,13.0850445,-2.3162589,-0.6513513\PG=C01 [X(C14H9Br1N4)]\\
 @


 NOTHING PUZZLES ME MORE THAN TIME AND SPACE; AND YET NOTHING TROUBLES ME LESS
                                                          -- CHARLES LAMB (1810)
 Job cpu time:       0 days  0 hours 23 minutes 15.4 seconds.
 Elapsed time:       0 days  0 hours  1 minutes 28.6 seconds.
 File lengths (MBytes):  RWF=     81 Int=      0 D2E=      0 Chk=     10 Scr=      2
 Normal termination of Gaussian 16 at Mon Jan 19 00:00:38 2026.
