
                                 *****************
                                 * O   R   C   A *
                                 *****************

           --- An Ab Initio, DFT and Semiempirical electronic structure package ---

                  #######################################################
                  #                        -***-                        #
                  #          Department of theory and spectroscopy      #
                  #               Directorship: Frank Neese             #
                  #        Max Planck Institute fuer Kohlenforschung    #
                  #                Kaiser Wilhelm Platz 1               #
                  #                 D-45470 Muelheim/Ruhr               #
                  #                      Germany                        #
                  #                                                     #
                  #                  All rights reserved                #
                  #                        -***-                        #
                  #######################################################


                         Program Version 4.2.1 -  RELEASE  -


 With contributions from (in alphabetic order):
   Daniel Aravena         : Magnetic Suceptibility
   Michael Atanasov       : Ab Initio Ligand Field Theory (pilot matlab implementation)
   Alexander A. Auer      : GIAO ZORA, VPT2
   Ute Becker             : Parallelization
   Giovanni Bistoni       : ED, misc. LED, open-shell LED, HFLD
   Martin Brehm           : Molecular dynamics
   Dmytro Bykov           : SCF Hessian
   Vijay G. Chilkuri      : MRCI spin determinant printing, contributions to CSF-ICE
   Dipayan Datta          : RHF DLPNO-CCSD density
   Achintya Kumar Dutta   : EOM-CC, STEOM-CC
   Dmitry Ganyushin       : Spin-Orbit,Spin-Spin,Magnetic field MRCI
   Miquel Garcia          : C-PCM Hessian, Gaussian charge scheme
   Yang Guo               : DLPNO-NEVPT2, CIM, IAO-localization
   Andreas Hansen         : Spin unrestricted coupled pair/coupled cluster methods
   Benjamin Helmich-Paris : CASSCF linear response (MC-RPA)
   Lee Huntington         : MR-EOM, pCC
   Robert Izsak           : Overlap fitted RIJCOSX, COSX-SCS-MP3, EOM
   Christian Kollmar      : KDIIS, OOCD, Brueckner-CCSD(T), CCSD density
   Simone Kossmann        : Meta GGA functionals, TD-DFT gradient, OOMP2, MP2 Hessian
   Martin Krupicka        : AUTO-CI
   Lucas Lang             : DCDCAS
   Dagmar Lenk            : GEPOL surface, SMD
   Dimitrios Liakos       : Extrapolation schemes; Compound Job, initial MDCI parallelization
   Dimitrios Manganas     : Further ROCIS development; embedding schemes
   Dimitrios Pantazis     : SARC Basis sets
   Taras Petrenko         : DFT Hessian,TD-DFT gradient, ASA, ECA, R-Raman, ABS, FL, XAS/XES, NRVS
   Peter Pinski           : DLPNO-MP2, DLPNO-MP2 Gradient
   Christoph Reimann      : Effective Core Potentials
   Marius Retegan         : Local ZFS, SOC
   Christoph Riplinger    : Optimizer, TS searches, QM/MM, DLPNO-CCSD(T), (RO)-DLPNO pert. Triples
   Tobias Risthaus        : Range-separated hybrids, TD-DFT gradient, RPA, STAB
   Michael Roemelt        : Original ROCIS implementation
   Masaaki Saitow         : Open-shell DLPNO-CCSD energy and density
   Barbara Sandhoefer     : DKH picture change effects
   Avijit Sen             : IP-ROCIS
   Kantharuban Sivalingam : CASSCF convergence, NEVPT2, FIC-MRCI
   Bernardo de Souza      : ESD, SOC TD-DFT
   Georgi Stoychev        : AutoAux, RI-MP2 NMR
   Willem Van den Heuvel  : Paramagnetic NMR
   Boris Wezisla          : Elementary symmetry handling
   Frank Wennmohs         : Technical directorship


 We gratefully acknowledge several colleagues who have allowed us to
 interface, adapt or use parts of their codes:
   Stefan Grimme, W. Hujo, H. Kruse,             : VdW corrections, initial TS optimization,
                  C. Bannwarth                     DFT functionals, gCP, sTDA/sTD-DF
   Ed Valeev, F. Pavosevic, A. Kumar             : LibInt (2-el integral package), F12 methods
   Garnet Chan, S. Sharma, J. Yang, R. Olivares  : DMRG
   Ulf Ekstrom                                   : XCFun DFT Library
   Mihaly Kallay                                 : mrcc  (arbitrary order and MRCC methods)
   Andreas Klamt, Michael Diedenhofen            : otool_cosmo (COSMO solvation model)
   Jiri Pittner, Ondrej Demel                    : Mk-CCSD
   Frank Weinhold                                : gennbo (NPA and NBO analysis)
   Christopher J. Cramer and Donald G. Truhlar   : smd solvation model
   Lars Goerigk                                  : TD-DFT with DH, B97 family of functionals
   V. Asgeirsson, H. Jonsson                     : NEB implementation
   FAccTs GmbH                                   : IRC, NEB, NEB-TS, Multilevel, MM, QM/MM, CI optimization
   S Lehtola, MJT Oliveira, MAL Marques          : LibXC Library


 Your calculation uses the libint2 library for the computation of 2-el integrals
 For citations please refer to: http://libint.valeyev.net

 Your ORCA version has been built with support for libXC version: 4.2.3
 For citations please refer to: https://tddft.org/programs/libxc/

 This ORCA versions uses:
   CBLAS   interface :  Fast vector & matrix operations
   LAPACKE interface :  Fast linear algebra routines
   SCALAPACK package :  Parallel linear algebra routines


Your calculation utilizes the semiempirical GFN2-xTB method
Please cite in your paper:
C. Bannwarth, Ehlert S., S. Grimme,  J. Chem. Theory Comput., 15, (2019), 1652.
   

----- Orbital basis set information -----
Your calculation utilizes the basis: def2-SVP
   F. Weigend and R. Ahlrichs, Phys. Chem. Chem. Phys. 7, 3297 (2005).

================================================================================
                                        WARNINGS
                       Please study these warnings very carefully!
================================================================================


WARNING: Geometry Optimization
  ===> : Switching off AutoStart
         For restart on a previous wavefunction, please use MOREAD

WARNING: Found dipole moment calculation with XTB calculation
  ===> : Switching off dipole moment calculation


WARNING: otool_xtb not available.
         Trying xtb instead   ... done.
  ===> : Now using xtb as program name.


INFO   : the flag for use of LIBINT has been found!

================================================================================
                                       INPUT FILE
================================================================================
NAME = pre_opt.inp
|  1> ! XTB2 Opt
|  2> * xyz 0 1
|  3> C     -1.538778   -2.762750    0.466262
|  4> N     -1.186570   -1.372088    0.193608
|  5> C     -2.025490   -0.308400    0.085376
|  6> C     -3.419938   -0.305066    0.165558
|  7> C     -4.087127    0.927231    0.032050
|  8> C     -3.360503    2.123372   -0.172621
|  9> Br    -4.291413    3.781272   -0.346923
| 10> C     -1.955221    2.101448   -0.244836
| 11> C     -1.322646    0.869177   -0.112641
| 12> C      0.002613    0.512968   -0.116393
| 13> N      1.119636    1.266979   -0.248178
| 14> C      2.328322    0.630602   -0.188434
| 15> C      3.519916    1.345709   -0.319656
| 16> C      4.741445    0.670860   -0.252412
| 17> C      4.758513   -0.714131   -0.053691
| 18> N      3.593523   -1.405461    0.074109
| 19> C      2.387289   -0.782543    0.013433
| 20> N      1.234016   -1.504451    0.146502
| 21> C      0.052159   -0.842894    0.076721
| 22> H     -1.880711   -2.860024    1.517775
| 23> H     -2.351917   -3.086545   -0.216710
| 24> H     -0.662735   -3.426307    0.307073
| 25> H     -3.977168   -1.218476    0.326592
| 26> H     -5.167545    0.955725    0.089130
| 27> H     -1.385246    3.009388   -0.394881
| 28> H      3.502884    2.417622   -0.472747
| 29> H      5.670409    1.216992   -0.353269
| 30> H      5.702284   -1.240208   -0.000795
| 31> *
| 32> 
| 33>                          ****END OF INPUT****
================================================================================

                       *****************************
                       * Geometry Optimization Run *
                       *****************************

Geometry optimization settings:
Update method            Update   .... BFGS
Choice of coordinates    CoordSys .... Z-matrix Internals
Initial Hessian          InHess   .... Almoef's Model

Convergence Tolerances:
Energy Change            TolE     ....  5.0000e-06 Eh
Max. Gradient            TolMAXG  ....  3.0000e-04 Eh/bohr
RMS Gradient             TolRMSG  ....  1.0000e-04 Eh/bohr
Max. Displacement        TolMAXD  ....  4.0000e-03 bohr
RMS Displacement         TolRMSD  ....  2.0000e-03 bohr
Strict Convergence                ....  False
------------------------------------------------------------------------------
                        ORCA OPTIMIZATION COORDINATE SETUP
------------------------------------------------------------------------------

The optimization will be done in new redundant internal coordinates
Making redundant internal coordinates   ...  (new redundants) done
Evaluating the initial hessian          ...  (Almloef) done
Evaluating the coordinates              ...  done
Calculating the B-matrix                .... done
Calculating the G-matrix                .... done
Diagonalizing the G-matrix              .... done
Small eigenvalue found = 1.618e-02
The first mode is                       ....   78
The number of degrees of freedom        ....   78

    -----------------------------------------------------------------
                    Redundant Internal Coordinates


    -----------------------------------------------------------------
         Definition                    Initial Value    Approx d2E/dq
    -----------------------------------------------------------------
      1. B(N   1,C   0)                  1.4603         0.432310   
      2. B(C   2,N   1)                  1.3590         0.627052   
      3. B(C   3,C   2)                  1.3968         0.609482   
      4. B(C   4,C   3)                  1.4077         0.585538   
      5. B(C   5,C   4)                  1.4144         0.571155   
      6. B(Br  6,C   5)                  1.9093         0.311636   
      7. B(C   7,C   5)                  1.4073         0.586309   
      8. B(C   8,C   7)                  1.3914         0.621489   
      9. B(C   8,C   2)                  1.3856         0.634977   
     10. B(C   9,C   8)                  1.3723         0.666770   
     11. B(N  10,C   9)                  1.3541         0.638440   
     12. B(C  11,N  10)                  1.3673         0.608298   
     13. B(C  12,C  11)                  1.3959         0.611435   
     14. B(C  13,C  12)                  1.3972         0.608561   
     15. B(C  14,C  13)                  1.3993         0.603858   
     16. B(N  15,C  14)                  1.3607         0.623219   
     17. B(C  16,N  15)                  1.3589         0.627242   
     18. B(C  16,C  11)                  1.4287         0.541979   
     19. B(N  17,C  16)                  1.3671         0.608764   
     20. B(C  18,N  17)                  1.3562         0.633550   
     21. B(C  18,C   9)                  1.3704         0.671341   
     22. B(C  18,N   1)                  1.3521         0.643209   
     23. B(H  19,C   0)                  1.1100         0.334613   
     24. B(H  20,C   0)                  1.1102         0.334376   
     25. B(H  21,C   0)                  1.1105         0.334038   
     26. B(H  22,C   3)                  1.0820         0.370820   
     27. B(H  23,C   4)                  1.0823         0.370432   
     28. B(H  24,C   7)                  1.0825         0.370201   
     29. B(H  25,C  12)                  1.0829         0.369583   
     30. B(H  26,C  13)                  1.0823         0.370411   
     31. B(H  27,C  14)                  1.0818         0.371133   
     32. A(H  19,C   0,H  21)          109.0542         0.284167   
     33. A(H  19,C   0,H  20)          109.3657         0.284211   
     34. A(N   1,C   0,H  20)          109.8499         0.326212   
     35. A(N   1,C   0,H  19)          109.5508         0.326250   
     36. A(N   1,C   0,H  21)          110.6116         0.326158   
     37. A(H  20,C   0,H  21)          108.3822         0.284135   
     38. A(C   0,N   1,C  18)          127.5788         0.404424   
     39. A(C   2,N   1,C  18)          104.6149         0.432123   
     40. A(C   0,N   1,C   2)          127.6885         0.402613   
     41. A(N   1,C   2,C   8)          111.3115         0.433962   
     42. A(C   3,C   2,C   8)          120.8362         0.434594   
     43. A(N   1,C   2,C   3)          127.8484         0.430778   
     44. A(C   2,C   3,C   4)          118.0233         0.428312   
     45. A(C   2,C   3,H  22)          121.3773         0.353640   
     46. A(C   4,C   3,H  22)          120.5994         0.351250   
     47. A(C   3,C   4,H  23)          119.4188         0.351188   
     48. A(C   3,C   4,C   5)          120.7005         0.423360   
     49. A(C   5,C   4,H  23)          119.8806         0.349717   
     50. A(C   4,C   5,C   7)          120.4796         0.423460   
     51. A(Br  6,C   5,C   7)          119.7156         0.405379   
     52. A(C   4,C   5,Br  6)          119.8045         0.403510   
     53. A(C   5,C   7,H  24)          121.3214         0.351229   
     54. A(C   5,C   7,C   8)          117.5734         0.429915   
     55. A(C   8,C   7,H  24)          121.1049         0.354711   
     56. A(C   7,C   8,C   9)          131.9630         0.439984   
     57. A(C   2,C   8,C   7)          122.3860         0.436124   
     58. A(C   2,C   8,C   9)          105.6435         0.441693   
     59. A(N  10,C   9,C  18)          122.3300         0.439764   
     60. A(C   8,C   9,C  18)          106.9381         0.446167   
     61. A(C   8,C   9,N  10)          130.7197         0.439222   
     62. A(C   9,N  10,C  11)          117.7623         0.429199   
     63. A(C  12,C  11,C  16)          118.9972         0.422668   
     64. A(N  10,C  11,C  16)          120.2001         0.419537   
     65. A(N  10,C  11,C  12)          120.8026         0.428683   
     66. A(C  13,C  12,H  25)          119.9111         0.353350   
     67. A(C  11,C  12,H  25)          120.4610         0.353632   
     68. A(C  11,C  12,C  13)          119.6279         0.431534   
     69. A(C  14,C  13,H  26)          120.1462         0.353019   
     70. A(C  12,C  13,H  26)          120.1458         0.353483   
     71. A(C  12,C  13,C  14)          119.7080         0.430569   
     72. A(C  13,C  14,H  27)          119.9289         0.353136   
     73. A(N  15,C  14,H  27)          119.6879         0.352840   
     74. A(C  13,C  14,N  15)          120.3832         0.429588   
     75. A(C  14,N  15,C  16)          121.5257         0.429703   
     76. A(N  15,C  16,N  17)          120.1593         0.427898   
     77. A(C  11,C  16,N  17)          120.0827         0.419595   
     78. A(C  11,C  16,N  15)          119.7580         0.421840   
     79. A(C  16,N  17,C  18)          118.2001         0.428667   
     80. A(N   1,C  18,C   9)          111.4867         0.440355   
     81. A(C   9,C  18,N  17)          121.4238         0.439154   
     82. A(N   1,C  18,N  17)          127.0856         0.432924   
     83. D(C   2,N   1,C   0,H  20)     49.7988         0.015934   
     84. D(C  18,N   1,C   0,H  19)    105.0830         0.015934   
     85. D(C  18,N   1,C   0,H  21)    -15.1614         0.015934   
     86. D(C   2,N   1,C   0,H  21)    169.4013         0.015934   
     87. D(C  18,N   1,C   0,H  20)   -134.7640         0.015934   
     88. D(C   2,N   1,C   0,H  19)    -70.3542         0.015934   
     89. D(C   8,C   2,N   1,C   0)    176.9718         0.031896   
     90. D(C   3,C   2,N   1,C   0)     -2.3181         0.031896   
     91. D(C   3,C   2,N   1,C  18)   -178.5824         0.031896   
     92. D(C   8,C   2,N   1,C  18)      0.7075         0.031896   
     93. D(H  22,C   3,C   2,C   8)   -179.5862         0.025653   
     94. D(C   4,C   3,C   2,C   8)      0.3374         0.025653   
     95. D(C   4,C   3,C   2,N   1)    179.5670         0.025653   
     96. D(H  22,C   3,C   2,N   1)     -0.3567         0.025653   
     97. D(C   5,C   4,C   3,C   2)     -0.2049         0.023577   
     98. D(H  23,C   4,C   3,C   2)    179.9143         0.023577   
     99. D(C   5,C   4,C   3,H  22)    179.7193         0.023577   
    100. D(H  23,C   4,C   3,H  22)     -0.1615         0.023577   
    101. D(C   7,C   5,C   4,H  23)    179.8084         0.022382   
    102. D(C   7,C   5,C   4,C   3)     -0.0718         0.022382   
    103. D(Br  6,C   5,C   4,H  23)     -0.0001         0.022382   
    104. D(Br  6,C   5,C   4,C   3)   -179.8804         0.022382   
    105. D(H  24,C   7,C   5,Br  6)      0.1947         0.023642   
    106. D(H  24,C   7,C   5,C   4)   -179.6140         0.023642   
    107. D(C   8,C   7,C   5,Br  6)   -179.9755         0.023642   
    108. D(C   8,C   7,C   5,C   4)      0.2158         0.023642   
    109. D(C   9,C   8,C   2,C   3)    178.9158         0.027984   
    110. D(C   9,C   8,C   2,N   1)     -0.4313         0.027984   
    111. D(C   7,C   8,C   2,C   3)     -0.1970         0.027984   
    112. D(C   2,C   8,C   7,C   5)     -0.0853         0.026735   
    113. D(C   7,C   8,C   2,N   1)   -179.5440         0.027984   
    114. D(C   9,C   8,C   7,H  24)      0.8940         0.026735   
    115. D(C   9,C   8,C   7,C   5)   -178.9362         0.026735   
    116. D(C   2,C   8,C   7,H  24)    179.7449         0.026735   
    117. D(C  18,C   9,C   8,C   7)    178.9638         0.031070   
    118. D(N  10,C   9,C   8,C   7)      0.2411         0.031070   
    119. D(C  18,C   9,C   8,C   2)     -0.0286         0.031070   
    120. D(N  10,C   9,C   8,C   2)   -178.7513         0.031070   
    121. D(C  11,N  10,C   9,C  18)      0.2640         0.030038   
    122. D(C  11,N  10,C   9,C   8)    178.8179         0.030038   
    123. D(C  16,C  11,N  10,C   9)     -0.2934         0.027075   
    124. D(C  12,C  11,N  10,C   9)    179.8546         0.027075   
    125. D(H  25,C  12,C  11,C  16)   -179.9581         0.025827   
    126. D(H  25,C  12,C  11,N  10)     -0.1043         0.025827   
    127. D(C  13,C  12,C  11,C  16)      0.0353         0.025827   
    128. D(C  13,C  12,C  11,N  10)    179.8891         0.025827   
    129. D(H  26,C  13,C  12,H  25)     -0.0178         0.025571   
    130. D(H  26,C  13,C  12,C  11)    179.9888         0.025571   
    131. D(C  14,C  13,C  12,H  25)    179.9628         0.025571   
    132. D(C  14,C  13,C  12,C  11)     -0.0306         0.025571   
    133. D(H  27,C  14,C  13,H  26)     -0.0031         0.025155   
    134. D(H  27,C  14,C  13,C  12)   -179.9837         0.025155   
    135. D(N  15,C  14,C  13,H  26)    179.9811         0.025155   
    136. D(N  15,C  14,C  13,C  12)      0.0005         0.025155   
    137. D(C  16,N  15,C  14,H  27)   -179.9905         0.028518   
    138. D(C  16,N  15,C  14,C  13)      0.0253         0.028518   
    139. D(N  17,C  16,N  15,C  14)   -179.9451         0.028915   
    140. D(C  11,C  16,N  15,C  14)     -0.0201         0.028915   
    141. D(N  17,C  16,C  11,C  12)    179.9147         0.020075   
    142. D(N  17,C  16,C  11,N  10)      0.0599         0.020075   
    143. D(N  15,C  16,C  11,C  12)     -0.0105         0.020075   
    144. D(N  15,C  16,C  11,N  10)   -179.8652         0.020075   
    145. D(C  18,N  17,C  16,C  11)      0.2128         0.027119   
    146. D(C  18,N  17,C  16,N  15)   -179.8624         0.027119   
    147. D(C   9,C  18,N  17,C  16)     -0.2514         0.029544   
    148. D(N   1,C  18,N  17,C  16)   -179.4653         0.029544   
    149. D(N  17,C  18,C   9,N  10)      0.0111         0.031530   
    150. D(N  17,C  18,C   9,C   8)   -178.8432         0.031530   
    151. D(N   1,C  18,C   9,N  10)    179.3373         0.031530   
    152. D(N   1,C  18,C   9,C   8)      0.4829         0.031530   
    153. D(N  17,C  18,N   1,C   2)    178.5521         0.033702   
    154. D(N  17,C  18,N   1,C   0)      2.2823         0.033702   
    155. D(C   9,C  18,N   1,C   2)     -0.7271         0.033702   
    156. D(C   9,C  18,N   1,C   0)   -176.9969         0.033702   
    -----------------------------------------------------------------

Number of atoms                         .... 28
Number of degrees of freedom            .... 156

         *************************************************************
         *                GEOMETRY OPTIMIZATION CYCLE   1            *
         *************************************************************
      -----------------------------------------------------------      
     |                   =====================                   |     
     |                           x T B                           |     
     |                   =====================                   |     
     |                         S. Grimme                         |     
     |          Mulliken Center for Theoretical Chemistry        |     
     |                    University of Bonn                     |     
      -----------------------------------------------------------      

   * xtb version 6.2.3 (830e466) compiled by 'ehlert@majestix' on 2020-03-16

   xtb is free software: you can redistribute it and/or modify it under
   the terms of the GNU Lesser General Public License as published by
   the Free Software Foundation, either version 3 of the License, or
   (at your option) any later version.
   
   xtb is distributed in the hope that it will be useful,
   but WITHOUT ANY WARRANTY; without even the implied warranty of
   MERCHANTABILITY or FITNESS FOR A PARTICULAR PURPOSE.  See the
   GNU Lesser General Public License for more details.
   
   Cite this work as:
   * S. Grimme, C. Bannwarth, P. Shushkov, J. Chem. Theory Comput., 2017,
     13, 1989-2009. DOI: 10.1021/acs.jctc.7b00118
   * C. Bannwarth, S. Ehlert and S. Grimme., J. Chem. Theory Comput., 2019,
     15, 1652-1671. DOI: 10.1021/acs.jctc.8b01176
   * P. Pracht, E. Caldeweyher, S. Ehlert, S. Grimme, ChemRxiv, 2019, preprint.
     DOI: 10.26434/chemrxiv.8326202.v1
   
   for DFT-D4:
   * E. Caldeweyher, C. Bannwarth and S. Grimme, J. Chem. Phys., 2017,
     147, 034112. DOI: 10.1063/1.4993215
   * E. Caldeweyher, S. Ehlert, A. Hansen, H. Neugebauer, S. Spicher,
     C. Bannwarth and S. Grimme, J. Chem. Phys., 2019, 150, 154122.
     DOI: 10.1063/1.5090222
   
   for sTDA-xTB:
   * S. Grimme and C. Bannwarth, J. Chem. Phys., 2016, 145, 054103.
     DOI: 10.1063/1.4959605
   
   in the mass-spec context:
   * V. Asgeirsson, C. Bauer and S. Grimme, Chem. Sci., 2017, 8, 4879.
     DOI: 10.1039/c7sc00601b
   
   for metadynamics refer to:
   * S. Grimme, J. Chem. Theory Comput., 2019, 155, 2847-2862
     DOI: 10.1021/acs.jctc.9b00143
   
   with help from (in alphabetical order)
   C. Bannwarth, F. Bohle, G. Brandenburg, E. Caldeweyher, M. Checinski,
   S. Dohm, S. Ehlert, S. Ehrlich, F. März, H. Neugebauer, J. Pisarek,
   P. Pracht, P. Shushkov, and S. Spicher.
   
 * started run on 2026/01/18 at 23:58:42.813     

           -------------------------------------------------
          |                Calculation Setup                |
           -------------------------------------------------

          program call               : /appl/orca_4.2.1/orca_4_2_1_linux_x86-64_openmpi314/xtb pre_opt_XTB.xyz --grad -c 0 -u 0 -P 1 --namespace pre_opt
          hostname                   : cnode14
          calculation namespace      : pre_opt
          coordinate file            : pre_opt_XTB.xyz
          omp threads                :                     1
          number of atoms            :                    28
          number of electrons        :                    92
          charge                     :                     0
          spin                       :                   0.0
          first test random number   :      0.88165605996771

########################################################################
[WARNING] Please study the warnings concerning your input carefully
-2- prog_main: XTBPATH is not set, using XTBHOME instead
-1- prog_main: XTBHOME is not set, using HOME instead
########################################################################
           ------------------------------------------------- 
          |                 G F N 2 - x T B                 |
          | Geometry, Frequencies, Noncovalent interactions |
          |            JCTC 2019 parametrisation            |
           ------------------------------------------------- 
             k(s)              :                1.8500
             k(p)              :                2.2300
             k(d)              :                2.2300
             k(f)              :                2.0000
             kEN (H0ij)        :               -2.0000
             D4 a1             :                0.5200
             D4 a2             :                5.0000
             D4 s6             :                1.0000
             D4 s8             :                2.7000
             D4 s9             :                5.0000
             alphaj            :                2.0000

  Z AO/shell   Hii/eV     exponent
  1     Wed Apr 25 08:07:45 CEST 2018   EN: 2.200 GM2: 0.406  GM3: 0.0800  RAES: 1.40
     1s    -10.707211    1.230000
  6     Wed Apr 25 08:07:45 CEST 2018   EN: 2.550 GM2: 0.538  GM3: 0.1500  RAES: 3.00
     2s    -13.970922    2.096432
     2p    -10.063292    1.800000
  7     Wed Apr 25 08:07:45 CEST 2018   EN: 3.040 GM2: 0.461  GM3:-0.0640  RAES: 1.90
     2s    -16.686243    2.339881
     2p    -12.523956    2.014332
 35     Tue Apr 24 12:21:41 CEST 2018   EN: 2.960 GM2: 0.261  GM3: 0.1300  RAES: 4.00
     4s    -23.583718    2.077587
     4p    -12.588824    2.263120
     4d      0.047980    1.845038

           ------------------------------------------------- 
          |        Self-Consistent Charge Iterations        |
           ------------------------------------------------- 

          ...................................................
          :                      SETUP                      :
          :.................................................:
          :  # basis functions                  91          :
          :  # atomic orbitals                  90          :
          :  # shells                           48          :
          :  # electrons                        92          :
          :  max. iterations                   250          :
          :  Hamiltonian                  GFN2-xTB          :
          :  restarted?                      false          :
          :  GBSA solvation                  false          :
          :  PC potential                    false          :
          :  electronic temp.          300.0000000     K    :
          :  accuracy                    1.0000000          :
          :  -> integral cutoff          0.2500000E+02      :
          :  -> integral neglect         0.1000000E-07      :
          :  -> SCF convergence          0.1000000E-05 Eh   :
          :  -> wf. convergence          0.1000000E-03 e    :
          :  Broyden damping             0.4000000          :
          ...................................................

 iter      E             dE          RMSdq      gap      omega  full diag
   1    -50.9929461 -0.509929E+02  0.494E+00    1.37       0.0  T
   2    -51.0676465 -0.747004E-01  0.319E+00    1.08       1.0  T
   3    -51.0642724  0.337403E-02  0.154E+00    0.97       1.0  T
   4    -51.0832414 -0.189690E-01  0.483E-01    0.83       1.0  T
   5    -51.0885204 -0.527893E-02  0.279E-01    0.82       1.0  T
   6    -51.0891871 -0.666725E-03  0.151E-01    0.83       1.0  T
   7    -51.0892747 -0.875753E-04  0.999E-02    0.81       1.0  T
   8    -51.0892952 -0.205908E-04  0.759E-02    0.82       1.0  T
   9    -51.0893237 -0.284086E-04  0.370E-02    0.82       1.0  T
  10    -51.0893383 -0.146580E-04  0.111E-02    0.82       1.7  T
  11    -51.0893393 -0.969148E-06  0.546E-03    0.82       3.5  T
  12    -51.0893394 -0.105253E-06  0.159E-03    0.82      11.9  T
  13    -51.0893394 -0.272619E-07  0.671E-04    0.82      28.2  T
  14    -51.0893394 -0.452461E-08  0.420E-04    0.82      45.0  T

   *** convergence criteria satisfied after 14 iterations ***

         #    Occupation            Energy/Eh            Energy/eV
      -------------------------------------------------------------
         1        2.0000           -0.8377271             -22.7957
       ...           ...                  ...                  ...
        40        2.0000           -0.4194287             -11.4132
        41        2.0000           -0.4162351             -11.3263
        42        2.0000           -0.4126187             -11.2279
        43        2.0000           -0.4116253             -11.2009
        44        2.0000           -0.3919358             -10.6651
        45        2.0000           -0.3908416             -10.6353
        46        2.0000           -0.3518555              -9.5745 (HOMO)
        47        0.0000           -0.3217468              -8.7552 (LUMO)
        48                         -0.2683099              -7.3011
        49                         -0.2467326              -6.7139
        50                         -0.2375577              -6.4643
        51                         -0.2272069              -6.1826
       ...                                ...                  ...
        90                          0.7545639              20.5327
      -------------------------------------------------------------
                  HL-Gap            0.0301087 Eh            0.8193 eV
             Fermi-level           -0.3368012 Eh           -9.1648 eV

 SCC (total)                   0 d,  0 h,  0 min,  0.075 sec
 SCC setup                      ...        0 min,  0.000 sec (  0.636%)
 Dispersion                     ...        0 min,  0.001 sec (  0.706%)
 integral evaluation            ...        0 min,  0.030 sec ( 39.388%)
 zeroth order Hamiltonian       ...        0 min,  0.000 sec (  0.510%)
 iterations                     ...        0 min,  0.025 sec ( 32.658%)
 molecular gradient             ...        0 min,  0.019 sec ( 25.865%)
 printout                       ...        0 min,  0.000 sec (  0.172%)

         :::::::::::::::::::::::::::::::::::::::::::::::::::::
         ::                     SUMMARY                     ::
         :::::::::::::::::::::::::::::::::::::::::::::::::::::
         :: total energy             -50.357968813456 Eh    ::
         :: gradient norm              0.180238394194 Eh/a0 ::
         :: HOMO-LUMO gap              0.819300277726 eV    ::
         ::.................................................::
         :: SCC energy               -51.089339414624 Eh    ::
         :: -> isotropic ES            0.034280812699 Eh    ::
         :: -> anisotropic ES          0.003610243100 Eh    ::
         :: -> anisotropic XC          0.037191295896 Eh    ::
         :: -> dispersion             -0.034382252496 Eh    ::
         :: repulsion energy           0.731599924948 Eh    ::
         :: add. restraining           0.000000000000 Eh    ::
         :::::::::::::::::::::::::::::::::::::::::::::::::::::

           -------------------------------------------------
          |                Property Printout                |
           -------------------------------------------------

    * Orbital Energies and Occupations

         #    Occupation            Energy/Eh            Energy/eV
      -------------------------------------------------------------
         1        2.0000           -0.8377271             -22.7957
       ...           ...                  ...                  ...
        34        2.0000           -0.4692238             -12.7682
        35        2.0000           -0.4684723             -12.7478
        36        2.0000           -0.4628780             -12.5956
        37        2.0000           -0.4532726             -12.3342
        38        2.0000           -0.4475074             -12.1773
        39        2.0000           -0.4371493             -11.8954
        40        2.0000           -0.4194287             -11.4132
        41        2.0000           -0.4162351             -11.3263
        42        2.0000           -0.4126187             -11.2279
        43        2.0000           -0.4116253             -11.2009
        44        2.0000           -0.3919358             -10.6651
        45        2.0000           -0.3908416             -10.6353
        46        2.0000           -0.3518555              -9.5745 (HOMO)
        47        0.0000           -0.3217468              -8.7552 (LUMO)
        48                         -0.2683099              -7.3011
        49                         -0.2467326              -6.7139
        50                         -0.2375577              -6.4643
        51                         -0.2272069              -6.1826
        52                         -0.2089509              -5.6858
        53                         -0.1641915              -4.4679
        54                         -0.1152693              -3.1366
        55                         -0.0832094              -2.2642
        56                         -0.0336128              -0.9147
        57                          0.0293669               0.7991
       ...                                ...                  ...
        90                          0.7545639              20.5327
      -------------------------------------------------------------
                  HL-Gap            0.0301087 Eh            0.8193 eV
             Fermi-level           -0.3368012 Eh           -9.1648 eV

     #   Z        covCN         q      C6AA      α(0)
     1   6 C      3.677    -0.050    21.697     6.673
     2   7 N      2.812    -0.035    21.919     6.954
     3   6 C      3.260     0.052    25.712     8.193
     4   6 C      2.908    -0.052    29.301     8.876
     5   6 C      2.966    -0.035    28.862     8.812
     6   6 C      2.903     0.072    26.388     8.423
     7  35 Br     1.034    -0.163   189.533    22.198
     8   6 C      2.967    -0.031    28.772     8.798
     9   6 C      3.148    -0.016    28.143     8.678
    10   6 C      3.111     0.074    26.195     8.385
    11   7 N      1.839    -0.246    27.273     7.739
    12   6 C      2.932     0.072    26.395     8.426
    13   6 C      2.915    -0.018    28.456     8.748
    14   6 C      2.906    -0.038    28.946     8.822
    15   6 C      2.852     0.063    26.590     8.451
    16   7 N      1.836    -0.231    26.905     7.687
    17   6 C      2.874     0.162    24.507     8.115
    18   7 N      1.838    -0.266    27.767     7.809
    19   6 C      3.200     0.135    24.539     8.072
    20   1 H      0.922     0.062     2.178     2.308
    21   1 H      0.922     0.062     2.173     2.305
    22   1 H      0.922     0.088     1.900     2.156
    23   1 H      0.925     0.048     2.348     2.396
    24   1 H      0.925     0.060     2.194     2.316
    25   1 H      0.925     0.072     2.058     2.244
    26   1 H      0.925     0.059     2.214     2.327
    27   1 H      0.925     0.044     2.397     2.421
    28   1 H      0.925     0.056     2.244     2.343

 Mol. C6AA /au·bohr⁶  :      14323.156963
 Mol. C8AA /au·bohr⁸  :     409501.993027
 Mol. α(0) /au        :        190.674545


Wiberg/Mayer (AO) data.
largest (>0.10) Wiberg bond orders for each atom
          total WBO             WBO to atom ...
     1  C   3.958        N    2 0.989    H   22 0.978    H   21 0.977    H   20 0.974
     2  N   3.577        C   19 1.186    C    3 1.143    C    1 0.989
     3  C   3.954        C    4 1.350    C    9 1.255    N    2 1.143
     4  C   3.983        C    5 1.460    C    3 1.350    H   23 0.967    C    8 0.106
     5  C   3.967        C    4 1.460    C    6 1.371    H   24 0.970
     6  C   3.926        C    8 1.433    C    5 1.371    Br   7 0.988
     7  Br  1.111        C    6 0.988
     8  C   3.976        C    6 1.433    C    9 1.349    H   25 0.966    C    4 0.106
     9  C   3.985        C    8 1.349    C    3 1.255    C   10 1.167
    10  C   3.981        N   11 1.413    C   19 1.180    C    9 1.167
    11  N   3.041        C   10 1.413    C   12 1.310    N   18 0.112
    12  C   3.973        N   11 1.310    C   13 1.295    C   17 1.177
    13  C   3.973        C   14 1.513    C   12 1.295    H   26 0.966    N   16 0.119
    14  C   3.977        C   13 1.513    C   15 1.352    H   27 0.969
    15  C   3.960        N   16 1.496    C   14 1.352    H   28 0.964
    16  N   3.048        C   15 1.496    C   17 1.302    C   13 0.119
    17  C   3.965        N   18 1.304    N   16 1.302    C   12 1.177
    18  N   3.030        C   19 1.388    C   17 1.304    N   11 0.112
    19  C   3.966        N   18 1.388    N    2 1.186    C   10 1.180
    20  H   0.994        C    1 0.974
    21  H   0.995        C    1 0.977
    22  H   0.992        C    1 0.978
    23  H   0.997        C    4 0.967
    24  H   0.996        C    5 0.970
    25  H   0.994        C    8 0.966
    26  H   0.997        C   13 0.966
    27  H   0.998        C   14 0.969
    28  H   0.996        C   15 0.964

molecular dipole:
                 x           y           z       tot (Debye)
 q only:       -0.182      -1.046       0.155
   full:        0.065      -1.133       0.157       2.912
molecular quadrupole (traceless):
                xx          xy          yy          xz          yz          zz
 q only:        6.087      20.469      -4.593      -3.024      -0.397      -1.494
  q+dip:       11.395      33.261     -11.806      -4.902       0.383       0.410
   full:        8.281      32.543     -14.118      -4.491       1.511       5.838


           -------------------------------------------------
          | TOTAL ENERGY              -50.357968813456 Eh   |
          | GRADIENT NORM               0.180238394194 Eh/α |
          | HOMO-LUMO GAP               0.819300277726 eV   |
           -------------------------------------------------

------------------------------------------------------------------------
 * finished run on 2026/01/18 at 23:58:43.302     
------------------------------------------------------------------------
 total:
 * wall-time:     0 d,  0 h,  0 min,  0.488 sec
 *  cpu-time:     0 d,  0 h,  0 min,  0.113 sec
 * ratio c/w:     0.232 speedup
 SCF:
 * wall-time:     0 d,  0 h,  0 min,  0.076 sec
 *  cpu-time:     0 d,  0 h,  0 min,  0.076 sec
 * ratio c/w:     0.998 speedup


-------------------------   --------------------
FINAL SINGLE POINT ENERGY         0.000000000000
-------------------------   --------------------

------------------------------------------------------------------------------
                         ORCA GEOMETRY RELAXATION STEP
------------------------------------------------------------------------------

Reading the OPT-File                    .... done
Getting information on internals        .... done
Copying old internal coords+grads       .... done
Making the new internal coordinates     .... (new redundants).... done
Validating the new internal coordinates .... (new redundants).... done
Calculating the B-matrix                .... done
Calculating the G,G- and P matrices     .... done
Transforming gradient to internals      .... done
Projecting the internal gradient        .... done
Number of atoms                         ....  28
Number of internal coordinates          .... 156
Current Energy                          ....     0.000000000 Eh
Current gradient norm                   ....     0.180238394 Eh/bohr
Maximum allowed component of the step   ....  0.300
Current trust radius                    ....  0.300
Evaluating the initial hessian          ....  (Almloef) done
Projecting the Hessian                  .... done
Forming the augmented Hessian           .... done
Diagonalizing the augmented Hessian     .... done
Last element of RFO vector              ....  0.970167351
Lowest eigenvalues of augmented Hessian:
 -0.036179485  0.015941684  0.022852275  0.023177886  0.023246816
Length of the computed step             ....  0.249891113
The final length of the internal step   ....  0.249891113
Converting the step to cartesian space:
 Initial RMS(Int)=    0.0200073013
Transforming coordinates:
 Iter   0:  RMS(Cart)=    0.0670883414 RMS(Int)=    1.0062199106
 Iter   1:  RMS(Cart)=    0.0010883096 RMS(Int)=    0.0004147482
 Iter   2:  RMS(Cart)=    0.0000243858 RMS(Int)=    0.0000108155
 Iter   3:  RMS(Cart)=    0.0000007301 RMS(Int)=    0.0000002845
 Iter   4:  RMS(Cart)=    0.0000000237 RMS(Int)=    0.0000000113
done
Storing new coordinates                 .... done

                                .--------------------.
          ----------------------|Geometry convergence|-------------------------
          Item                value                   Tolerance       Converged
          ---------------------------------------------------------------------
          RMS gradient        0.0118398647            0.0001000000      NO
          MAX gradient        0.0537718038            0.0003000000      NO
          RMS step            0.0200073013            0.0020000000      NO
          MAX step            0.0800124282            0.0040000000      NO
          ........................................................
          Max(Bonds)      0.0423      Max(Angles)    2.50
          Max(Dihed)        0.69      Max(Improp)    0.00
          ---------------------------------------------------------------------

The optimization has not yet converged - more geometry cycles are needed


    ---------------------------------------------------------------------------
                         Redundant Internal Coordinates
                            (Angstroem and degrees)

        Definition                    Value    dE/dq     Step     New-Value
    ----------------------------------------------------------------------------
     1. B(N   1,C   0)                1.4603  0.019592 -0.0221    1.4381   
     2. B(C   2,N   1)                1.3590 -0.024981  0.0183    1.3774   
     3. B(C   3,C   2)                1.3968  0.006593 -0.0051    1.3917   
     4. B(C   4,C   3)                1.4077  0.022399 -0.0197    1.3880   
     5. B(C   5,C   4)                1.4144  0.016501 -0.0153    1.3991   
     6. B(Br  6,C   5)                1.9093  0.004617 -0.0070    1.9023   
     7. B(C   7,C   5)                1.4073  0.021854 -0.0189    1.3884   
     8. B(C   8,C   7)                1.3914  0.003566 -0.0023    1.3892   
     9. B(C   8,C   2)                1.3856 -0.025671  0.0210    1.4066   
    10. B(C   9,C   8)                1.3723 -0.053772  0.0420    1.4143   
    11. B(N  10,C   9)                1.3541  0.039074 -0.0301    1.3240   
    12. B(C  11,N  10)                1.3673  0.021193 -0.0176    1.3497   
    13. B(C  12,C  11)                1.3959  0.000866  0.0002    1.3961   
    14. B(C  13,C  12)                1.3972  0.025402 -0.0205    1.3767   
    15. B(C  14,C  13)                1.3993 -0.003058  0.0020    1.4013   
    16. B(N  15,C  14)                1.3607  0.051675 -0.0423    1.3183   
    17. B(C  16,N  15)                1.3589  0.025245 -0.0205    1.3384   
    18. B(C  16,C  11)                1.4287 -0.012604  0.0113    1.4400   
    19. B(N  17,C  16)                1.3671  0.029939 -0.0251    1.3420   
    20. B(C  18,N  17)                1.3562  0.040751 -0.0320    1.3242   
    21. B(C  18,C   9)                1.3704 -0.052346  0.0407    1.4112   
    22. B(C  18,N   1)                1.3521 -0.009784  0.0068    1.3589   
    23. B(H  19,C   0)                1.1100  0.010919 -0.0156    1.0944   
    24. B(H  20,C   0)                1.1102  0.011915 -0.0170    1.0932   
    25. B(H  21,C   0)                1.1105  0.014641 -0.0209    1.0895   
    26. B(H  22,C   3)                1.0820  0.003284 -0.0043    1.0777   
    27. B(H  23,C   4)                1.0823  0.002936 -0.0038    1.0785   
    28. B(H  24,C   7)                1.0825  0.003631 -0.0047    1.0777   
    29. B(H  25,C  12)                1.0829  0.002325 -0.0030    1.0799   
    30. B(H  26,C  13)                1.0823  0.001912 -0.0025    1.0798   
    31. B(H  27,C  14)                1.0818  0.003803 -0.0049    1.0768   
    32. A(H  19,C   0,H  21)          109.05 -0.001949    0.22    109.28   
    33. A(H  19,C   0,H  20)          109.37  0.000057    0.13    109.49   
    34. A(N   1,C   0,H  20)          109.85  0.000151    0.01    109.85   
    35. A(N   1,C   0,H  19)          109.55 -0.002602    0.42    109.97   
    36. A(N   1,C   0,H  21)          110.61  0.008093   -1.37    109.24   
    37. A(H  20,C   0,H  21)          108.38 -0.003823    0.61    108.99   
    38. A(C   0,N   1,C  18)          127.58  0.011106   -1.24    126.34   
    39. A(C   2,N   1,C  18)          104.61 -0.018416    2.01    106.62   
    40. A(C   0,N   1,C   2)          127.69  0.007301   -0.75    126.94   
    41. A(N   1,C   2,C   8)          111.31  0.002396   -0.55    110.76   
    42. A(C   3,C   2,C   8)          120.84  0.004218   -0.25    120.59   
    43. A(N   1,C   2,C   3)          127.85 -0.006616    0.80    128.65   
    44. A(C   2,C   3,C   4)          118.02  0.000091   -0.06    117.97   
    45. A(C   2,C   3,H  22)          121.38 -0.001345    0.22    121.60   
    46. A(C   4,C   3,H  22)          120.60  0.001254   -0.16    120.44   
    47. A(C   3,C   4,H  23)          119.42  0.001458   -0.06    119.36   
    48. A(C   3,C   4,C   5)          120.70 -0.004665    0.37    121.07   
    49. A(C   5,C   4,H  23)          119.88  0.003207   -0.32    119.57   
    50. A(C   4,C   5,C   7)          120.48 -0.009472    1.01    121.49   
    51. A(Br  6,C   5,C   7)          119.72  0.003499   -0.34    119.37   
    52. A(C   4,C   5,Br  6)          119.80  0.005973   -0.67    119.14   
    53. A(C   5,C   7,H  24)          121.32 -0.001668    0.20    121.53   
    54. A(C   5,C   7,C   8)          117.57  0.001990   -0.21    117.36   
    55. A(C   8,C   7,H  24)          121.10 -0.000322    0.01    121.11   
    56. A(C   7,C   8,C   9)          131.96 -0.009728    0.93    132.89   
    57. A(C   2,C   8,C   7)          122.39  0.007837   -0.86    121.52   
    58. A(C   2,C   8,C   9)          105.64  0.001888   -0.06    105.58   
    59. A(N  10,C   9,C  18)          122.33 -0.000389    0.06    122.39   
    60. A(C   8,C   9,C  18)          106.94  0.005853   -0.39    106.55   
    61. A(C   8,C   9,N  10)          130.72 -0.005469    0.33    131.05   
    62. A(C   9,N  10,C  11)          117.76  0.018330   -2.10    115.66   
    63. A(C  12,C  11,C  16)          119.00  0.007447   -0.69    118.31   
    64. A(N  10,C  11,C  16)          120.20 -0.013399    1.49    121.69   
    65. A(N  10,C  11,C  12)          120.80  0.005952   -0.80    120.00   
    66. A(C  13,C  12,H  25)          119.91 -0.007163    0.88    120.79   
    67. A(C  11,C  12,H  25)          120.46 -0.001935    0.11    120.57   
    68. A(C  11,C  12,C  13)          119.63  0.009098   -0.99    118.64   
    69. A(C  14,C  13,H  26)          120.15 -0.000928    0.15    120.29   
    70. A(C  12,C  13,H  26)          120.15  0.000094   -0.00    120.14   
    71. A(C  12,C  13,C  14)          119.71  0.000834   -0.14    119.57   
    72. A(C  13,C  14,H  27)          119.93  0.001457    0.07    119.99   
    73. A(N  15,C  14,H  27)          119.69  0.017461   -2.29    117.40   
    74. A(C  13,C  14,N  15)          120.38 -0.018918    2.23    122.61   
    75. A(C  14,N  15,C  16)          121.53  0.011390   -1.70    119.82   
    76. A(N  15,C  16,N  17)          120.16  0.020687   -2.50    117.66   
    77. A(C  11,C  16,N  17)          120.08 -0.010836    1.21    121.29   
    78. A(C  11,C  16,N  15)          119.76 -0.009851    1.29    121.05   
    79. A(C  16,N  17,C  18)          118.20  0.020069   -2.47    115.73   
    80. A(N   1,C  18,C   9)          111.49  0.008281   -1.01    110.48   
    81. A(C   9,C  18,N  17)          121.42 -0.013775    1.81    123.23   
    82. A(N   1,C  18,N  17)          127.09  0.005490   -0.80    126.29   
    83. D(C   2,N   1,C   0,H  20)     49.80 -0.000434    0.24     50.04   
    84. D(C  18,N   1,C   0,H  19)    105.08  0.000091    0.27    105.35   
    85. D(C  18,N   1,C   0,H  21)    -15.16 -0.000922    0.59    -14.57   
    86. D(C   2,N   1,C   0,H  21)    169.40  0.000013    0.14    169.54   
    87. D(C  18,N   1,C   0,H  20)   -134.76 -0.001368    0.69   -134.07   
    88. D(C   2,N   1,C   0,H  19)    -70.35  0.001025   -0.18    -70.53   
    89. D(C   8,C   2,N   1,C   0)    176.97 -0.000106    0.29    177.26   
    90. D(C   3,C   2,N   1,C   0)     -2.32  0.000097    0.11     -2.21   
    91. D(C   3,C   2,N   1,C  18)   -178.58 -0.000010   -0.16   -178.74   
    92. D(C   8,C   2,N   1,C  18)      0.71 -0.000213    0.02      0.72   
    93. D(H  22,C   3,C   2,C   8)   -179.59  0.000026   -0.01   -179.60   
    94. D(C   4,C   3,C   2,C   8)      0.34  0.000023   -0.03      0.31   
    95. D(C   4,C   3,C   2,N   1)    179.57 -0.000219    0.16    179.73   
    96. D(H  22,C   3,C   2,N   1)     -0.36 -0.000215    0.18     -0.18   
    97. D(C   5,C   4,C   3,C   2)     -0.20 -0.000010    0.03     -0.18   
    98. D(H  23,C   4,C   3,C   2)    179.91 -0.000016    0.04    179.95   
    99. D(C   5,C   4,C   3,H  22)    179.72 -0.000016    0.01    179.73   
   100. D(H  23,C   4,C   3,H  22)     -0.16 -0.000022    0.02     -0.14   
   101. D(C   7,C   5,C   4,H  23)    179.81  0.000016    0.00    179.81   
   102. D(C   7,C   5,C   4,C   3)     -0.07  0.000012    0.01     -0.06   
   103. D(Br  6,C   5,C   4,H  23)     -0.00  0.000021   -0.02     -0.02   
   104. D(Br  6,C   5,C   4,C   3)   -179.88  0.000017   -0.01   -179.89   
   105. D(H  24,C   7,C   5,Br  6)      0.19  0.000053   -0.06      0.13   
   106. D(H  24,C   7,C   5,C   4)   -179.61  0.000053   -0.09   -179.70   
   107. D(C   8,C   7,C   5,Br  6)   -179.98  0.000040   -0.03   -180.00   
   108. D(C   8,C   7,C   5,C   4)      0.22  0.000040   -0.05      0.17   
   109. D(C   9,C   8,C   2,C   3)    178.92 -0.000245    0.16    179.07   
   110. D(C   9,C   8,C   2,N   1)     -0.43  0.000029   -0.01     -0.44   
   111. D(C   7,C   8,C   2,C   3)     -0.20  0.000029   -0.01     -0.21   
   112. D(C   2,C   8,C   7,C   5)     -0.09 -0.000082    0.05     -0.03   
   113. D(C   7,C   8,C   2,N   1)   -179.54  0.000303   -0.18   -179.73   
   114. D(C   9,C   8,C   7,H  24)      0.89  0.000072   -0.11      0.78   
   115. D(C   9,C   8,C   7,C   5)   -178.94  0.000087   -0.15   -179.08   
   116. D(C   2,C   8,C   7,H  24)    179.74 -0.000097    0.09    179.83   
   117. D(C  18,C   9,C   8,C   7)    178.96 -0.000121    0.19    179.16   
   118. D(N  10,C   9,C   8,C   7)      0.24  0.000117   -0.08      0.16   
   119. D(C  18,C   9,C   8,C   2)     -0.03 -0.000051    0.03     -0.00   
   120. D(N  10,C   9,C   8,C   2)   -178.75  0.000187   -0.25   -179.00   
   121. D(C  11,N  10,C   9,C  18)      0.26 -0.000002    0.01      0.28   
   122. D(C  11,N  10,C   9,C   8)    178.82 -0.000220    0.32    179.14   
   123. D(C  16,C  11,N  10,C   9)     -0.29 -0.000010    0.04     -0.25   
   124. D(C  12,C  11,N  10,C   9)    179.85 -0.000040    0.04    179.89   
   125. D(H  25,C  12,C  11,C  16)   -179.96  0.000043   -0.04   -180.00   
   126. D(H  25,C  12,C  11,N  10)     -0.10  0.000043   -0.03     -0.14   
   127. D(C  13,C  12,C  11,C  16)      0.04  0.000016   -0.01      0.02   
   128. D(C  13,C  12,C  11,N  10)    179.89  0.000015   -0.00    179.88   
   129. D(H  26,C  13,C  12,H  25)     -0.02 -0.000002    0.00     -0.01   
   130. D(H  26,C  13,C  12,C  11)    179.99  0.000025   -0.02    179.96   
   131. D(C  14,C  13,C  12,H  25)    179.96 -0.000042    0.04    180.01   
   132. D(C  14,C  13,C  12,C  11)     -0.03 -0.000014    0.01     -0.02   
   133. D(H  27,C  14,C  13,H  26)     -0.00  0.000001    0.00     -0.00   
   134. D(H  27,C  14,C  13,C  12)   -179.98  0.000041   -0.04   -180.02   
   135. D(N  15,C  14,C  13,H  26)    179.98 -0.000035    0.03    180.01   
   136. D(N  15,C  14,C  13,C  12)      0.00  0.000004   -0.01     -0.01   
   137. D(C  16,N  15,C  14,H  27)   -179.99 -0.000030    0.03   -179.96   
   138. D(C  16,N  15,C  14,C  13)      0.03  0.000009   -0.01      0.02   
   139. D(N  17,C  16,N  15,C  14)   -179.95 -0.000053    0.06   -179.88   
   140. D(C  11,C  16,N  15,C  14)     -0.02 -0.000014    0.01     -0.01   
   141. D(N  17,C  16,C  11,C  12)    179.91  0.000064   -0.06    179.86   
   142. D(N  17,C  16,C  11,N  10)      0.06  0.000036   -0.06     -0.00   
   143. D(N  15,C  16,C  11,C  12)     -0.01  0.000001   -0.00     -0.01   
   144. D(N  15,C  16,C  11,N  10)   -179.87 -0.000027   -0.00   -179.87   
   145. D(C  18,N  17,C  16,C  11)      0.21 -0.000040    0.02      0.23   
   146. D(C  18,N  17,C  16,N  15)   -179.86  0.000000   -0.03   -179.89   
   147. D(C   9,C  18,N  17,C  16)     -0.25  0.000005    0.03     -0.22   
   148. D(N   1,C  18,N  17,C  16)   -179.47  0.000356   -0.29   -179.75   
   149. D(N  17,C  18,C   9,N  10)      0.01  0.000019   -0.05     -0.04   
   150. D(N  17,C  18,C   9,C   8)   -178.84  0.000321   -0.31   -179.15   
   151. D(N   1,C  18,C   9,N  10)    179.34 -0.000272    0.22    179.56   
   152. D(N   1,C  18,C   9,C   8)      0.48  0.000031   -0.03      0.45   
   153. D(N  17,C  18,N   1,C   2)    178.55 -0.000354    0.32    178.87   
   154. D(N  17,C  18,N   1,C   0)      2.28 -0.000272    0.03      2.31   
   155. D(C   9,C  18,N   1,C   2)     -0.73  0.000114    0.01     -0.72   
   156. D(C   9,C  18,N   1,C   0)   -177.00  0.000197   -0.29   -177.29   
    ----------------------------------------------------------------------------

         *************************************************************
         *                GEOMETRY OPTIMIZATION CYCLE   2            *
         *************************************************************
      -----------------------------------------------------------      
     |                   =====================                   |     
     |                           x T B                           |     
     |                   =====================                   |     
     |                         S. Grimme                         |     
     |          Mulliken Center for Theoretical Chemistry        |     
     |                    University of Bonn                     |     
      -----------------------------------------------------------      

   * xtb version 6.2.3 (830e466) compiled by 'ehlert@majestix' on 2020-03-16

   xtb is free software: you can redistribute it and/or modify it under
   the terms of the GNU Lesser General Public License as published by
   the Free Software Foundation, either version 3 of the License, or
   (at your option) any later version.
   
   xtb is distributed in the hope that it will be useful,
   but WITHOUT ANY WARRANTY; without even the implied warranty of
   MERCHANTABILITY or FITNESS FOR A PARTICULAR PURPOSE.  See the
   GNU Lesser General Public License for more details.
   
   Cite this work as:
   * S. Grimme, C. Bannwarth, P. Shushkov, J. Chem. Theory Comput., 2017,
     13, 1989-2009. DOI: 10.1021/acs.jctc.7b00118
   * C. Bannwarth, S. Ehlert and S. Grimme., J. Chem. Theory Comput., 2019,
     15, 1652-1671. DOI: 10.1021/acs.jctc.8b01176
   * P. Pracht, E. Caldeweyher, S. Ehlert, S. Grimme, ChemRxiv, 2019, preprint.
     DOI: 10.26434/chemrxiv.8326202.v1
   
   for DFT-D4:
   * E. Caldeweyher, C. Bannwarth and S. Grimme, J. Chem. Phys., 2017,
     147, 034112. DOI: 10.1063/1.4993215
   * E. Caldeweyher, S. Ehlert, A. Hansen, H. Neugebauer, S. Spicher,
     C. Bannwarth and S. Grimme, J. Chem. Phys., 2019, 150, 154122.
     DOI: 10.1063/1.5090222
   
   for sTDA-xTB:
   * S. Grimme and C. Bannwarth, J. Chem. Phys., 2016, 145, 054103.
     DOI: 10.1063/1.4959605
   
   in the mass-spec context:
   * V. Asgeirsson, C. Bauer and S. Grimme, Chem. Sci., 2017, 8, 4879.
     DOI: 10.1039/c7sc00601b
   
   for metadynamics refer to:
   * S. Grimme, J. Chem. Theory Comput., 2019, 155, 2847-2862
     DOI: 10.1021/acs.jctc.9b00143
   
   with help from (in alphabetical order)
   C. Bannwarth, F. Bohle, G. Brandenburg, E. Caldeweyher, M. Checinski,
   S. Dohm, S. Ehlert, S. Ehrlich, F. März, H. Neugebauer, J. Pisarek,
   P. Pracht, P. Shushkov, and S. Spicher.
   
 * started run on 2026/01/18 at 23:58:44.434     

           -------------------------------------------------
          |                Calculation Setup                |
           -------------------------------------------------

          program call               : /appl/orca_4.2.1/orca_4_2_1_linux_x86-64_openmpi314/xtb pre_opt_XTB.xyz --grad -c 0 -u 0 -P 1 --namespace pre_opt
          hostname                   : cnode14
          calculation namespace      : pre_opt
          coordinate file            : pre_opt_XTB.xyz
          omp threads                :                     1
          number of atoms            :                    28
          number of electrons        :                    92
          charge                     :                     0
          spin                       :                   0.0
          first test random number   :      0.57517920708760

########################################################################
[WARNING] Please study the warnings concerning your input carefully
-2- prog_main: XTBPATH is not set, using XTBHOME instead
-1- prog_main: XTBHOME is not set, using HOME instead
########################################################################
           ------------------------------------------------- 
          |                 G F N 2 - x T B                 |
          | Geometry, Frequencies, Noncovalent interactions |
          |            JCTC 2019 parametrisation            |
           ------------------------------------------------- 
             k(s)              :                1.8500
             k(p)              :                2.2300
             k(d)              :                2.2300
             k(f)              :                2.0000
             kEN (H0ij)        :               -2.0000
             D4 a1             :                0.5200
             D4 a2             :                5.0000
             D4 s6             :                1.0000
             D4 s8             :                2.7000
             D4 s9             :                5.0000
             alphaj            :                2.0000

  Z AO/shell   Hii/eV     exponent
  1     Wed Apr 25 08:07:45 CEST 2018   EN: 2.200 GM2: 0.406  GM3: 0.0800  RAES: 1.40
     1s    -10.707211    1.230000
  6     Wed Apr 25 08:07:45 CEST 2018   EN: 2.550 GM2: 0.538  GM3: 0.1500  RAES: 3.00
     2s    -13.970922    2.096432
     2p    -10.063292    1.800000
  7     Wed Apr 25 08:07:45 CEST 2018   EN: 3.040 GM2: 0.461  GM3:-0.0640  RAES: 1.90
     2s    -16.686243    2.339881
     2p    -12.523956    2.014332
 35     Tue Apr 24 12:21:41 CEST 2018   EN: 2.960 GM2: 0.261  GM3: 0.1300  RAES: 4.00
     4s    -23.583718    2.077587
     4p    -12.588824    2.263120
     4d      0.047980    1.845038

           ------------------------------------------------- 
          |        Self-Consistent Charge Iterations        |
           ------------------------------------------------- 

          ...................................................
          :                      SETUP                      :
          :.................................................:
          :  # basis functions                  91          :
          :  # atomic orbitals                  90          :
          :  # shells                           48          :
          :  # electrons                        92          :
          :  max. iterations                   250          :
          :  Hamiltonian                  GFN2-xTB          :
          :  restarted?                      false          :
          :  GBSA solvation                  false          :
          :  PC potential                    false          :
          :  electronic temp.          300.0000000     K    :
          :  accuracy                    1.0000000          :
          :  -> integral cutoff          0.2500000E+02      :
          :  -> integral neglect         0.1000000E-07      :
          :  -> SCF convergence          0.1000000E-05 Eh   :
          :  -> wf. convergence          0.1000000E-03 e    :
          :  Broyden damping             0.4000000          :
          ...................................................

 iter      E             dE          RMSdq      gap      omega  full diag
   1    -51.0441561 -0.510442E+02  0.489E+00    1.55       0.0  T
   2    -51.1208360 -0.766799E-01  0.319E+00    1.29       1.0  T
   3    -51.1195062  0.132976E-02  0.154E+00    1.18       1.0  T
   4    -51.1370809 -0.175746E-01  0.486E-01    1.05       1.0  T
   5    -51.1423453 -0.526446E-02  0.279E-01    1.04       1.0  T
   6    -51.1429542 -0.608891E-03  0.157E-01    1.05       1.0  T
   7    -51.1430600 -0.105784E-03  0.107E-01    1.04       1.0  T
   8    -51.1430889 -0.288367E-04  0.789E-02    1.05       1.0  T
   9    -51.1431208 -0.319200E-04  0.343E-02    1.04       1.0  T
  10    -51.1431332 -0.123842E-04  0.102E-02    1.04       1.9  T
  11    -51.1431338 -0.663424E-06  0.475E-03    1.04       4.0  T
  12    -51.1431339 -0.865972E-07  0.144E-03    1.04      13.1  T
  13    -51.1431339 -0.345024E-07  0.595E-04    1.04      31.8  T
  14    -51.1431340 -0.267460E-08  0.329E-04    1.04      57.4  T

   *** convergence criteria satisfied after 14 iterations ***

         #    Occupation            Energy/Eh            Energy/eV
      -------------------------------------------------------------
         1        2.0000           -0.8384475             -22.8153
       ...           ...                  ...                  ...
        40        2.0000           -0.4276874             -11.6380
        41        2.0000           -0.4191152             -11.4047
        42        2.0000           -0.4130449             -11.2395
        43        2.0000           -0.4105756             -11.1723
        44        2.0000           -0.3935497             -10.7090
        45        2.0000           -0.3906611             -10.6304
        46        2.0000           -0.3536781              -9.6241 (HOMO)
        47                         -0.3154058              -8.5826 (LUMO)
        48                         -0.2664504              -7.2505
        49                         -0.2434894              -6.6257
        50                         -0.2366554              -6.4397
        51                         -0.2227606              -6.0616
       ...                                ...                  ...
        90                          0.7158635              19.4796
      -------------------------------------------------------------
                  HL-Gap            0.0382724 Eh            1.0414 eV
             Fermi-level           -0.3345419 Eh           -9.1033 eV

 SCC (total)                   0 d,  0 h,  0 min,  0.066 sec
 SCC setup                      ...        0 min,  0.000 sec (  0.718%)
 Dispersion                     ...        0 min,  0.000 sec (  0.687%)
 integral evaluation            ...        0 min,  0.024 sec ( 36.714%)
 zeroth order Hamiltonian       ...        0 min,  0.000 sec (  0.469%)
 iterations                     ...        0 min,  0.022 sec ( 33.401%)
 molecular gradient             ...        0 min,  0.018 sec ( 27.760%)
 printout                       ...        0 min,  0.000 sec (  0.182%)

         :::::::::::::::::::::::::::::::::::::::::::::::::::::
         ::                     SUMMARY                     ::
         :::::::::::::::::::::::::::::::::::::::::::::::::::::
         :: total energy             -50.381072754281 Eh    ::
         :: gradient norm              0.065741621193 Eh/a0 ::
         :: HOMO-LUMO gap              1.041443965378 eV    ::
         ::.................................................::
         :: SCC energy               -51.143133952602 Eh    ::
         :: -> isotropic ES            0.032267340338 Eh    ::
         :: -> anisotropic ES          0.003110738163 Eh    ::
         :: -> anisotropic XC          0.034617201916 Eh    ::
         :: -> dispersion             -0.034714089881 Eh    ::
         :: repulsion energy           0.762286118664 Eh    ::
         :: add. restraining           0.000000000000 Eh    ::
         :::::::::::::::::::::::::::::::::::::::::::::::::::::

           -------------------------------------------------
          |                Property Printout                |
           -------------------------------------------------

    * Orbital Energies and Occupations

         #    Occupation            Energy/Eh            Energy/eV
      -------------------------------------------------------------
         1        2.0000           -0.8384475             -22.8153
       ...           ...                  ...                  ...
        34        2.0000           -0.4704572             -12.8018
        35        2.0000           -0.4686325             -12.7521
        36        2.0000           -0.4612569             -12.5514
        37        2.0000           -0.4518590             -12.2957
        38        2.0000           -0.4484552             -12.2031
        39        2.0000           -0.4387178             -11.9381
        40        2.0000           -0.4276874             -11.6380
        41        2.0000           -0.4191152             -11.4047
        42        2.0000           -0.4130449             -11.2395
        43        2.0000           -0.4105756             -11.1723
        44        2.0000           -0.3935497             -10.7090
        45        2.0000           -0.3906611             -10.6304
        46        2.0000           -0.3536781              -9.6241 (HOMO)
        47                         -0.3154058              -8.5826 (LUMO)
        48                         -0.2664504              -7.2505
        49                         -0.2434894              -6.6257
        50                         -0.2366554              -6.4397
        51                         -0.2227606              -6.0616
        52                         -0.2071280              -5.6362
        53                         -0.1631968              -4.4408
        54                         -0.1143898              -3.1127
        55                         -0.0823819              -2.2417
        56                         -0.0176889              -0.4813
        57                          0.0331207               0.9013
       ...                                ...                  ...
        90                          0.7158635              19.4796
      -------------------------------------------------------------
                  HL-Gap            0.0382724 Eh            1.0414 eV
             Fermi-level           -0.3345419 Eh           -9.1033 eV

     #   Z        covCN         q      C6AA      α(0)
     1   6 C      3.688    -0.052    21.699     6.668
     2   7 N      2.792    -0.040    22.015     6.969
     3   6 C      3.146     0.048    26.667     8.448
     4   6 C      2.910    -0.049    29.221     8.864
     5   6 C      2.989    -0.034    28.843     8.810
     6   6 C      2.913     0.075    26.333     8.415
     7  35 Br     1.063    -0.163   189.560    22.199
     8   6 C      2.983    -0.030    28.737     8.793
     9   6 C      3.082    -0.020    28.413     8.738
    10   6 C      3.083     0.071    26.313     8.409
    11   7 N      1.840    -0.235    27.002     7.701
    12   6 C      2.978     0.067    26.497     8.444
    13   6 C      2.922    -0.019    28.488     8.753
    14   6 C      2.914    -0.042    29.032     8.836
    15   6 C      2.888     0.066    26.515     8.442
    16   7 N      1.845    -0.227    26.798     7.672
    17   6 C      2.953     0.162    24.495     8.118
    18   7 N      1.845    -0.258    27.573     7.782
    19   6 C      3.123     0.134    24.916     8.174
    20   1 H      0.924     0.061     2.184     2.311
    21   1 H      0.924     0.062     2.171     2.304
    22   1 H      0.925     0.089     1.888     2.149
    23   1 H      0.926     0.048     2.342     2.393
    24   1 H      0.926     0.060     2.199     2.319
    25   1 H      0.926     0.071     2.071     2.250
    26   1 H      0.926     0.058     2.227     2.334
    27   1 H      0.926     0.043     2.403     2.424
    28   1 H      0.926     0.052     2.291     2.367

 Mol. C6AA /au·bohr⁶  :      14357.029841
 Mol. C8AA /au·bohr⁸  :     410462.968330
 Mol. α(0) /au        :        191.085732


Wiberg/Mayer (AO) data.
largest (>0.10) Wiberg bond orders for each atom
          total WBO             WBO to atom ...
     1  C   3.961        N    2 0.996    H   22 0.976    H   21 0.976    H   20 0.973
     2  N   3.571        C   19 1.185    C    3 1.133    C    1 0.996
     3  C   3.954        C    4 1.356    C    9 1.258    N    2 1.133
     4  C   3.984        C    5 1.463    C    3 1.356    H   23 0.966    C    8 0.102
     5  C   3.970        C    4 1.463    C    6 1.372    H   24 0.969
     6  C   3.929        C    8 1.435    C    5 1.372    Br   7 0.985
     7  Br  1.106        C    6 0.985
     8  C   3.978        C    6 1.435    C    9 1.363    H   25 0.965    C    4 0.102
     9  C   3.983        C    8 1.363    C    3 1.258    C   10 1.142
    10  C   3.980        N   11 1.460    C   19 1.143    C    9 1.142
    11  N   3.055        C   10 1.460    C   12 1.308
    12  C   3.973        N   11 1.308    C   13 1.288    C   17 1.168
    13  C   3.976        C   14 1.535    C   12 1.288    H   26 0.965    N   16 0.107
    14  C   3.976        C   13 1.535    C   15 1.322    H   27 0.970
    15  C   3.963        N   16 1.525    C   14 1.322    H   28 0.963
    16  N   3.064        C   15 1.525    C   17 1.297    C   13 0.107
    17  C   3.966        N   18 1.305    N   16 1.297    C   12 1.168
    18  N   3.047        C   19 1.420    C   17 1.305
    19  C   3.965        N   18 1.420    N    2 1.185    C   10 1.143
    20  H   0.994        C    1 0.973
    21  H   0.995        C    1 0.976
    22  H   0.992        C    1 0.976
    23  H   0.997        C    4 0.966
    24  H   0.996        C    5 0.969
    25  H   0.994        C    8 0.965
    26  H   0.997        C   13 0.965
    27  H   0.998        C   14 0.970
    28  H   0.997        C   15 0.963

molecular dipole:
                 x           y           z       tot (Debye)
 q only:       -0.154      -1.035       0.151
   full:        0.110      -1.147       0.158       2.955
molecular quadrupole (traceless):
                xx          xy          yy          xz          yz          zz
 q only:        5.235      19.624      -4.192      -2.901      -0.326      -1.042
  q+dip:        9.364      32.806     -11.147      -4.786       0.514       1.783
   full:        6.633      32.108     -13.653      -4.390       1.652       7.021


           -------------------------------------------------
          | TOTAL ENERGY              -50.381072754281 Eh   |
          | GRADIENT NORM               0.065741621193 Eh/α |
          | HOMO-LUMO GAP               1.041443965378 eV   |
           -------------------------------------------------

------------------------------------------------------------------------
 * finished run on 2026/01/18 at 23:58:44.848     
------------------------------------------------------------------------
 total:
 * wall-time:     0 d,  0 h,  0 min,  0.413 sec
 *  cpu-time:     0 d,  0 h,  0 min,  0.113 sec
 * ratio c/w:     0.273 speedup
 SCF:
 * wall-time:     0 d,  0 h,  0 min,  0.066 sec
 *  cpu-time:     0 d,  0 h,  0 min,  0.066 sec
 * ratio c/w:     1.000 speedup


-------------------------   --------------------
FINAL SINGLE POINT ENERGY         0.000000000000
-------------------------   --------------------

------------------------------------------------------------------------------
                         ORCA GEOMETRY RELAXATION STEP
------------------------------------------------------------------------------

Reading the OPT-File                    .... done
Getting information on internals        .... done
Copying old internal coords+grads       .... done
Making the new internal coordinates     .... (new redundants).... done
Validating the new internal coordinates .... (new redundants).... done
Calculating the B-matrix                .... done
Calculating the G,G- and P matrices     .... done
Transforming gradient to internals      .... done
Projecting the internal gradient        .... done
Number of atoms                         ....  28
Number of internal coordinates          .... 156
Current Energy                          ....     0.000000000 Eh
Current gradient norm                   ....     0.065741621 Eh/bohr
Maximum allowed component of the step   ....  0.300
Current trust radius                    ....  0.300
Updating the Hessian (BFGS)             .... done
Forming the augmented Hessian           .... done
Diagonalizing the augmented Hessian     .... done
Last element of RFO vector              ....  0.992692366
Lowest eigenvalues of augmented Hessian:
 -0.004930567  0.015955434  0.022852276  0.023177876  0.023246820
Length of the computed step             ....  0.121560884
The final length of the internal step   ....  0.121560884
Converting the step to cartesian space:
 Initial RMS(Int)=    0.0097326600
Transforming coordinates:
 Iter   0:  RMS(Cart)=    0.0301602630 RMS(Int)=    1.0053924162
 Iter   1:  RMS(Cart)=    0.0003064350 RMS(Int)=    0.0001504705
 Iter   2:  RMS(Cart)=    0.0000046967 RMS(Int)=    0.0000022016
 Iter   3:  RMS(Cart)=    0.0000001323 RMS(Int)=    0.0000000965
 Iter   4:  RMS(Cart)=    0.0000000040 RMS(Int)=    0.0000000020
done
Storing new coordinates                 .... done

                                .--------------------.
          ----------------------|Geometry convergence|-------------------------
          Item                value                   Tolerance       Converged
          ---------------------------------------------------------------------
          Energy change       0.0000000000            0.0000050000      YES
          RMS gradient        0.0035586439            0.0001000000      NO
          MAX gradient        0.0190797568            0.0003000000      NO
          RMS step            0.0097326600            0.0020000000      NO
          MAX step            0.0412282618            0.0040000000      NO
          ........................................................
          Max(Bonds)      0.0218      Max(Angles)    1.37
          Max(Dihed)        1.26      Max(Improp)    0.00
          ---------------------------------------------------------------------

The optimization has not yet converged - more geometry cycles are needed


    ---------------------------------------------------------------------------
                         Redundant Internal Coordinates
                            (Angstroem and degrees)

        Definition                    Value    dE/dq     Step     New-Value
    ----------------------------------------------------------------------------
     1. B(N   1,C   0)                1.4381  0.002665 -0.0045    1.4336   
     2. B(C   2,N   1)                1.3773 -0.004153  0.0041    1.3815   
     3. B(C   3,C   2)                1.3917  0.002803 -0.0033    1.3884   
     4. B(C   4,C   3)                1.3880  0.005592 -0.0073    1.3806   
     5. B(C   5,C   4)                1.3991  0.004811 -0.0066    1.3925   
     6. B(Br  6,C   5)                1.9023  0.000169 -0.0003    1.9020   
     7. B(C   7,C   5)                1.3884  0.005740 -0.0074    1.3810   
     8. B(C   8,C   7)                1.3892  0.002204 -0.0024    1.3868   
     9. B(C   8,C   2)                1.4065 -0.007842  0.0094    1.4159   
    10. B(C   9,C   8)                1.4143 -0.016258  0.0190    1.4333   
    11. B(N  10,C   9)                1.3240  0.013611 -0.0157    1.3084   
    12. B(C  11,N  10)                1.3497  0.001234 -0.0018    1.3479   
    13. B(C  12,C  11)                1.3960 -0.006819  0.0084    1.4045   
    14. B(C  13,C  12)                1.3767  0.005445 -0.0066    1.3701   
    15. B(C  14,C  13)                1.4014 -0.003954  0.0044    1.4058   
    16. B(N  15,C  14)                1.3184  0.014206 -0.0174    1.3010   
    17. B(C  16,N  15)                1.3384 -0.000322 -0.0000    1.3383   
    18. B(C  16,C  11)                1.4399 -0.002467  0.0035    1.4435   
    19. B(N  17,C  16)                1.3420  0.000003 -0.0005    1.3415   
    20. B(C  18,N  17)                1.3242  0.012852 -0.0150    1.3092   
    21. B(C  18,C   9)                1.4112 -0.019080  0.0218    1.4330   
    22. B(C  18,N   1)                1.3589 -0.001478  0.0013    1.3602   
    23. B(H  19,C   0)                1.0944  0.000960 -0.0020    1.0924   
    24. B(H  20,C   0)                1.0932  0.001263 -0.0026    1.0905   
    25. B(H  21,C   0)                1.0895  0.001264 -0.0026    1.0869   
    26. B(H  22,C   3)                1.0777 -0.000061  0.0001    1.0779   
    27. B(H  23,C   4)                1.0785 -0.000404  0.0008    1.0793   
    28. B(H  24,C   7)                1.0777  0.000083 -0.0002    1.0776   
    29. B(H  25,C  12)                1.0799  0.000251 -0.0005    1.0794   
    30. B(H  26,C  13)                1.0798  0.000049 -0.0001    1.0797   
    31. B(H  27,C  14)                1.0768 -0.002200  0.0042    1.0811   
    32. A(H  19,C   0,H  21)          109.28 -0.000519    0.01    109.29   
    33. A(H  19,C   0,H  20)          109.49  0.000892   -0.10    109.39   
    34. A(N   1,C   0,H  20)          109.85 -0.000697    0.21    110.07   
    35. A(N   1,C   0,H  19)          109.97 -0.002335    0.55    110.52   
    36. A(N   1,C   0,H  21)          109.24  0.004441   -1.12    108.13   
    37. A(H  20,C   0,H  21)          108.99 -0.001772    0.44    109.43   
    38. A(C   0,N   1,C  18)          126.34  0.005188   -0.86    125.48   
    39. A(C   2,N   1,C  18)          106.62 -0.007893    1.28    107.90   
    40. A(C   0,N   1,C   2)          126.94  0.002694   -0.39    126.56   
    41. A(N   1,C   2,C   8)          110.76  0.001561   -0.44    110.32   
    42. A(C   3,C   2,C   8)          120.58  0.000376    0.06    120.64   
    43. A(N   1,C   2,C   3)          128.65 -0.001938    0.38    129.04   
    44. A(C   2,C   3,C   4)          117.96 -0.000102    0.00    117.97   
    45. A(C   2,C   3,H  22)          121.60 -0.000229    0.06    121.66   
    46. A(C   4,C   3,H  22)          120.44  0.000330   -0.06    120.38   
    47. A(C   3,C   4,H  23)          119.36 -0.000654    0.19    119.55   
    48. A(C   3,C   4,C   5)          121.07 -0.000172   -0.06    121.02   
    49. A(C   5,C   4,H  23)          119.56  0.000826   -0.13    119.43   
    50. A(C   4,C   5,C   7)          121.49 -0.003538    0.59    122.08   
    51. A(Br  6,C   5,C   7)          119.37  0.001036   -0.15    119.22   
    52. A(C   4,C   5,Br  6)          119.14  0.002502   -0.43    118.70   
    53. A(C   5,C   7,H  24)          121.53 -0.001025    0.21    121.74   
[...]
   143. D(N  15,C  16,C  11,C  12)     -0.00 -0.000000   -0.00     -0.00   
   144. D(N  15,C  16,C  11,N  10)    180.00  0.000001   -0.00    180.00   
   145. D(C  18,N  17,C  16,C  11)      0.02  0.000003   -0.01      0.01   
   146. D(C  18,N  17,C  16,N  15)   -179.99  0.000002   -0.00   -179.99   
   147. D(C   9,C  18,N  17,C  16)     -0.01 -0.000003    0.01     -0.00   
   148. D(N   1,C  18,N  17,C  16)   -179.97  0.000003   -0.01   -179.98   
   149. D(N  17,C  18,C   9,N  10)     -0.00  0.000001   -0.00     -0.00   
   150. D(N  17,C  18,C   9,C   8)   -179.99  0.000005   -0.01   -180.00   
   151. D(N   1,C  18,C   9,N  10)    179.96 -0.000005    0.02    179.98   
   152. D(N   1,C  18,C   9,C   8)     -0.03 -0.000001    0.01     -0.02   
   153. D(N  17,C  18,N   1,C   2)   -180.00 -0.000005    0.00   -179.99   
   154. D(N  17,C  18,N   1,C   0)     -0.20 -0.000020    0.07     -0.13   
   155. D(C   9,C  18,N   1,C   2)      0.04  0.000001   -0.01      0.03   
   156. D(C   9,C  18,N   1,C   0)    179.83 -0.000014    0.06    179.89   
    ----------------------------------------------------------------------------
                 *******************************************************
                 *** FINAL ENERGY EVALUATION AT THE STATIONARY POINT ***
                 ***               (AFTER   11 CYCLES)               ***
                 *******************************************************
      -----------------------------------------------------------      
     |                   =====================                   |     
     |                           x T B                           |     
     |                   =====================                   |     
     |                         S. Grimme                         |     
     |          Mulliken Center for Theoretical Chemistry        |     
     |                    University of Bonn                     |     
      -----------------------------------------------------------      

   * xtb version 6.2.3 (830e466) compiled by 'ehlert@majestix' on 2020-03-16

   xtb is free software: you can redistribute it and/or modify it under
   the terms of the GNU Lesser General Public License as published by
   the Free Software Foundation, either version 3 of the License, or
   (at your option) any later version.
   
   xtb is distributed in the hope that it will be useful,
   but WITHOUT ANY WARRANTY; without even the implied warranty of
   MERCHANTABILITY or FITNESS FOR A PARTICULAR PURPOSE.  See the
   GNU Lesser General Public License for more details.
   
   Cite this work as:
   * S. Grimme, C. Bannwarth, P. Shushkov, J. Chem. Theory Comput., 2017,
     13, 1989-2009. DOI: 10.1021/acs.jctc.7b00118
   * C. Bannwarth, S. Ehlert and S. Grimme., J. Chem. Theory Comput., 2019,
     15, 1652-1671. DOI: 10.1021/acs.jctc.8b01176
   * P. Pracht, E. Caldeweyher, S. Ehlert, S. Grimme, ChemRxiv, 2019, preprint.
     DOI: 10.26434/chemrxiv.8326202.v1
   
   for DFT-D4:
   * E. Caldeweyher, C. Bannwarth and S. Grimme, J. Chem. Phys., 2017,
     147, 034112. DOI: 10.1063/1.4993215
   * E. Caldeweyher, S. Ehlert, A. Hansen, H. Neugebauer, S. Spicher,
     C. Bannwarth and S. Grimme, J. Chem. Phys., 2019, 150, 154122.
     DOI: 10.1063/1.5090222
   
   for sTDA-xTB:
   * S. Grimme and C. Bannwarth, J. Chem. Phys., 2016, 145, 054103.
     DOI: 10.1063/1.4959605
   
   in the mass-spec context:
   * V. Asgeirsson, C. Bauer and S. Grimme, Chem. Sci., 2017, 8, 4879.
     DOI: 10.1039/c7sc00601b
   
   for metadynamics refer to:
   * S. Grimme, J. Chem. Theory Comput., 2019, 155, 2847-2862
     DOI: 10.1021/acs.jctc.9b00143
   
   with help from (in alphabetical order)
   C. Bannwarth, F. Bohle, G. Brandenburg, E. Caldeweyher, M. Checinski,
   S. Dohm, S. Ehlert, S. Ehrlich, F. März, H. Neugebauer, J. Pisarek,
   P. Pracht, P. Shushkov, and S. Spicher.
   
 * started run on 2026/01/18 at 23:58:58.004     

           -------------------------------------------------
          |                Calculation Setup                |
           -------------------------------------------------

          program call               : /appl/orca_4.2.1/orca_4_2_1_linux_x86-64_openmpi314/xtb pre_opt_XTB.xyz --grad -c 0 -u 0 -P 1 --namespace pre_opt
          hostname                   : cnode14
          calculation namespace      : pre_opt
          coordinate file            : pre_opt_XTB.xyz
          omp threads                :                     1
          number of atoms            :                    28
          number of electrons        :                    92
          charge                     :                     0
          spin                       :                   0.0
          first test random number   :      0.06731984052909

########################################################################
[WARNING] Please study the warnings concerning your input carefully
-2- prog_main: XTBPATH is not set, using XTBHOME instead
-1- prog_main: XTBHOME is not set, using HOME instead
########################################################################
           ------------------------------------------------- 
          |                 G F N 2 - x T B                 |
          | Geometry, Frequencies, Noncovalent interactions |
          |            JCTC 2019 parametrisation            |
           ------------------------------------------------- 
             k(s)              :                1.8500
             k(p)              :                2.2300
             k(d)              :                2.2300
             k(f)              :                2.0000
             kEN (H0ij)        :               -2.0000
             D4 a1             :                0.5200
             D4 a2             :                5.0000
             D4 s6             :                1.0000
             D4 s8             :                2.7000
             D4 s9             :                5.0000
             alphaj            :                2.0000

  Z AO/shell   Hii/eV     exponent
  1     Wed Apr 25 08:07:45 CEST 2018   EN: 2.200 GM2: 0.406  GM3: 0.0800  RAES: 1.40
     1s    -10.707211    1.230000
  6     Wed Apr 25 08:07:45 CEST 2018   EN: 2.550 GM2: 0.538  GM3: 0.1500  RAES: 3.00
     2s    -13.970922    2.096432
     2p    -10.063292    1.800000
  7     Wed Apr 25 08:07:45 CEST 2018   EN: 3.040 GM2: 0.461  GM3:-0.0640  RAES: 1.90
     2s    -16.686243    2.339881
     2p    -12.523956    2.014332
 35     Tue Apr 24 12:21:41 CEST 2018   EN: 2.960 GM2: 0.261  GM3: 0.1300  RAES: 4.00
     4s    -23.583718    2.077587
     4p    -12.588824    2.263120
     4d      0.047980    1.845038

           ------------------------------------------------- 
          |        Self-Consistent Charge Iterations        |
           ------------------------------------------------- 

          ...................................................
          :                      SETUP                      :
          :.................................................:
          :  # basis functions                  91          :
          :  # atomic orbitals                  90          :
          :  # shells                           48          :
          :  # electrons                        92          :
          :  max. iterations                   250          :
          :  Hamiltonian                  GFN2-xTB          :
          :  restarted?                      false          :
          :  GBSA solvation                  false          :
          :  PC potential                    false          :
          :  electronic temp.          300.0000000     K    :
          :  accuracy                    1.0000000          :
          :  -> integral cutoff          0.2500000E+02      :
          :  -> integral neglect         0.1000000E-07      :
          :  -> SCF convergence          0.1000000E-05 Eh   :
          :  -> wf. convergence          0.1000000E-03 e    :
          :  Broyden damping             0.4000000          :
          ...................................................

 iter      E             dE          RMSdq      gap      omega  full diag
   1    -51.0470272 -0.510470E+02  0.490E+00    1.67       0.0  T
   2    -51.1249269 -0.778998E-01  0.321E+00    1.42       1.0  T
   3    -51.1242132  0.713707E-03  0.155E+00    1.33       1.0  T
   4    -51.1420932 -0.178800E-01  0.483E-01    1.20       1.0  T
   5    -51.1471533 -0.506006E-02  0.278E-01    1.18       1.0  T
   6    -51.1477310 -0.577717E-03  0.159E-01    1.20       1.0  T
   7    -51.1478441 -0.113047E-03  0.109E-01    1.18       1.0  T
   8    -51.1478756 -0.315268E-04  0.796E-02    1.19       1.0  T
   9    -51.1479080 -0.324530E-04  0.343E-02    1.18       1.0  T
  10    -51.1479203 -0.122524E-04  0.988E-03    1.19       1.9  T
  11    -51.1479209 -0.581598E-06  0.466E-03    1.19       4.1  T
  12    -51.1479210 -0.879314E-07  0.144E-03    1.19      13.2  T
  13    -51.1479210 -0.359501E-07  0.592E-04    1.19      31.9  T
  14    -51.1479210 -0.277809E-08  0.323E-04    1.19      58.5  T

   *** convergence criteria satisfied after 14 iterations ***

         #    Occupation            Energy/Eh            Energy/eV
      -------------------------------------------------------------
         1        2.0000           -0.8383933             -22.8138
       ...           ...                  ...                  ...
        40        2.0000           -0.4312287             -11.7343
        41        2.0000           -0.4202601             -11.4359
        42        2.0000           -0.4129867             -11.2379
        43        2.0000           -0.4103576             -11.1664
        44        2.0000           -0.3945813             -10.7371
        45        2.0000           -0.3905698             -10.6279
        46        2.0000           -0.3557811              -9.6813 (HOMO)
        47                         -0.3121885              -8.4951 (LUMO)
        48                         -0.2662539              -7.2451
        49                         -0.2441571              -6.6439
        50                         -0.2366356              -6.4392
        51                         -0.2228952              -6.0653
       ...                                ...                  ...
        90                          0.7075009              19.2521
      -------------------------------------------------------------
                  HL-Gap            0.0435926 Eh            1.1862 eV
             Fermi-level           -0.3339848 Eh           -9.0882 eV

 SCC (total)                   0 d,  0 h,  0 min,  0.062 sec
 SCC setup                      ...        0 min,  0.000 sec (  0.598%)
 Dispersion                     ...        0 min,  0.000 sec (  0.675%)
 integral evaluation            ...        0 min,  0.022 sec ( 35.840%)
 zeroth order Hamiltonian       ...        0 min,  0.000 sec (  0.517%)
 iterations                     ...        0 min,  0.021 sec ( 33.171%)
 molecular gradient             ...        0 min,  0.018 sec ( 28.935%)
 printout                       ...        0 min,  0.000 sec (  0.195%)

         :::::::::::::::::::::::::::::::::::::::::::::::::::::
         ::                     SUMMARY                     ::
         :::::::::::::::::::::::::::::::::::::::::::::::::::::
         :: total energy             -50.384371069009 Eh    ::
         :: gradient norm              0.000452252261 Eh/a0 ::
         :: HOMO-LUMO gap              1.186215196337 eV    ::
         ::.................................................::
         :: SCC energy               -51.147921009504 Eh    ::
         :: -> isotropic ES            0.031530736050 Eh    ::
         :: -> anisotropic ES          0.002675464328 Eh    ::
         :: -> anisotropic XC          0.034274038982 Eh    ::
         :: -> dispersion             -0.034742855057 Eh    ::
         :: repulsion energy           0.763774578047 Eh    ::
         :: add. restraining           0.000000000000 Eh    ::
         :::::::::::::::::::::::::::::::::::::::::::::::::::::

           -------------------------------------------------
          |                Property Printout                |
           -------------------------------------------------

    * Orbital Energies and Occupations

         #    Occupation            Energy/Eh            Energy/eV
      -------------------------------------------------------------
         1        2.0000           -0.8383933             -22.8138
       ...           ...                  ...                  ...
        34        2.0000           -0.4708866             -12.8135
        35        2.0000           -0.4681232             -12.7383
        36        2.0000           -0.4606435             -12.5347
        37        2.0000           -0.4518766             -12.2962
        38        2.0000           -0.4488641             -12.2142
        39        2.0000           -0.4393501             -11.9553
        40        2.0000           -0.4312287             -11.7343
        41        2.0000           -0.4202601             -11.4359
        42        2.0000           -0.4129867             -11.2379
        43        2.0000           -0.4103576             -11.1664
        44        2.0000           -0.3945813             -10.7371
        45        2.0000           -0.3905698             -10.6279
        46        2.0000           -0.3557811              -9.6813 (HOMO)
        47                         -0.3121885              -8.4951 (LUMO)
        48                         -0.2662539              -7.2451
        49                         -0.2441571              -6.6439
        50                         -0.2366356              -6.4392
        51                         -0.2228952              -6.0653
        52                         -0.2077838              -5.6541
        53                         -0.1638356              -4.4582
        54                         -0.1149096              -3.1268
        55                         -0.0848560              -2.3090
        56                         -0.0148346              -0.4037
        57                          0.0341673               0.9297
       ...                                ...                  ...
        90                          0.7075009              19.2521
      -------------------------------------------------------------
                  HL-Gap            0.0435926 Eh            1.1862 eV
             Fermi-level           -0.3339848 Eh           -9.0882 eV

     #   Z        covCN         q      C6AA      α(0)
     1   6 C      3.690    -0.054    21.733     6.672
     2   7 N      2.787    -0.040    22.021     6.970
     3   6 C      3.092     0.048    26.814     8.487
     4   6 C      2.912    -0.048    29.189     8.859
     5   6 C      2.998    -0.033    28.816     8.806
     6   6 C      2.918     0.075    26.321     8.413
     7  35 Br     1.072    -0.166   189.640    22.204
     8   6 C      2.986    -0.029    28.709     8.789
     9   6 C      3.060    -0.022    28.487     8.753
    10   6 C      3.067     0.071    26.347     8.417
    11   7 N      1.838    -0.229    26.853     7.679
    12   6 C      2.994     0.064    26.563     8.454
    13   6 C      2.924    -0.020    28.496     8.754
    14   6 C      2.911    -0.042    29.043     8.837
    15   6 C      2.907     0.068    26.480     8.438
    16   7 N      1.844    -0.225    26.751     7.665
    17   6 C      2.990     0.159    24.555     8.128
    18   7 N      1.844    -0.257    27.536     7.777
    19   6 C      3.090     0.133    24.999     8.195
    20   1 H      0.924     0.061     2.187     2.313
    21   1 H      0.924     0.061     2.188     2.313
    22   1 H      0.925     0.092     1.863     2.134
    23   1 H      0.926     0.049     2.338     2.391
    24   1 H      0.926     0.061     2.192     2.315
    25   1 H      0.926     0.071     2.077     2.254
    26   1 H      0.926     0.058     2.226     2.333
    27   1 H      0.926     0.045     2.385     2.415
    28   1 H      0.925     0.050     2.323     2.384

 Mol. C6AA /au·bohr⁶  :      14361.656901
 Mol. C8AA /au·bohr⁸  :     410623.590490
 Mol. α(0) /au        :        191.149858


Wiberg/Mayer (AO) data.
largest (>0.10) Wiberg bond orders for each atom
          total WBO             WBO to atom ...
     1  C   3.960        N    2 0.996    H   22 0.975    H   21 0.975    H   20 0.975
     2  N   3.572        C   19 1.187    C    3 1.133    C    1 0.996
     3  C   3.955        C    4 1.363    C    9 1.254    N    2 1.133
     4  C   3.984        C    5 1.458    C    3 1.363    H   23 0.966    C    8 0.100
     5  C   3.971        C    4 1.458    C    6 1.377    H   24 0.968
     6  C   3.928        C    8 1.433    C    5 1.377    Br   7 0.981
     7  Br  1.100        C    6 0.981
     8  C   3.979        C    6 1.433    C    9 1.374    H   25 0.964    C    4 0.100
     9  C   3.982        C    8 1.374    C    3 1.254    C   10 1.129
    10  C   3.978        N   11 1.501    C    9 1.129    C   19 1.108
    11  N   3.063        C   10 1.501    C   12 1.289
    12  C   3.972        N   11 1.289    C   13 1.275    C   17 1.193
    13  C   3.977        C   14 1.553    C   12 1.275    H   26 0.965    N   16 0.103
    14  C   3.975        C   13 1.553    C   15 1.304    H   27 0.969
    15  C   3.964        N   16 1.546    C   14 1.304    H   28 0.962
    16  N   3.066        C   15 1.546    C   17 1.286    C   13 0.103
    17  C   3.966        N   16 1.286    N   18 1.282    C   12 1.193
    18  N   3.051        C   19 1.453    C   17 1.282
    19  C   3.963        N   18 1.453    N    2 1.187    C   10 1.108
    20  H   0.994        C    1 0.975
    21  H   0.994        C    1 0.975
    22  H   0.991        C    1 0.975
    23  H   0.997        C    4 0.966
    24  H   0.996        C    5 0.968
    25  H   0.994        C    8 0.964
    26  H   0.997        C   13 0.965
    27  H   0.997        C   14 0.969
    28  H   0.997        C   15 0.962

molecular dipole:
                 x           y           z       tot (Debye)
 q only:       -0.128      -1.019       0.152
   full:        0.122      -1.127       0.157       2.908
molecular quadrupole (traceless):
                xx          xy          yy          xz          yz          zz
 q only:        4.930      19.585      -4.175      -3.062      -0.291      -0.755
  q+dip:        8.723      32.735     -10.970      -4.994       0.618       2.247
   full:        6.000      32.053     -13.475      -4.575       1.793       7.475


           -------------------------------------------------
          | TOTAL ENERGY              -50.384371069009 Eh   |
          | GRADIENT NORM               0.000452252261 Eh/α |
          | HOMO-LUMO GAP               1.186215196337 eV   |
           -------------------------------------------------

------------------------------------------------------------------------
 * finished run on 2026/01/18 at 23:58:58.218     
------------------------------------------------------------------------
 total:
 * wall-time:     0 d,  0 h,  0 min,  0.214 sec
 *  cpu-time:     0 d,  0 h,  0 min,  0.096 sec
 * ratio c/w:     0.449 speedup
 SCF:
 * wall-time:     0 d,  0 h,  0 min,  0.062 sec
 *  cpu-time:     0 d,  0 h,  0 min,  0.062 sec
 * ratio c/w:     1.000 speedup


-------------------------   --------------------
FINAL SINGLE POINT ENERGY         0.000000000000
-------------------------   --------------------

                                *** OPTIMIZATION RUN DONE ***

Timings for individual modules:

Sum of individual times         ...       11.797 sec (=   0.197 min)
Geometry relaxation             ...        3.798 sec (=   0.063 min)  32.2 %
XTB module                      ...        8.000 sec (=   0.133 min)  67.8 %
                             ****ORCA TERMINATED NORMALLY****
TOTAL RUN TIME: 0 days 0 hours 0 minutes 16 seconds 880 msec
