 Entering Gaussian System, Link 0=g16
 Initial command:
 /appl/Gaussian16/AVX_revB01/g16/l1.exe "/home/junhkim/WORK/Review_DD/TADF-Design/data/td_dft/results/mol_383/Gau-1373055.inp" -scrdir="/home/junhkim/WORK/Review_DD/TADF-Design/data/td_dft/results/mol_383/"
 Entering Link 1 = /appl/Gaussian16/AVX_revB01/g16/l1.exe PID=   1373057.
  
 Copyright (c) 1988-2017, Gaussian, Inc.  All Rights Reserved.
  
 This is part of the Gaussian(R) 16 program.  It is based on
 the Gaussian(R) 09 system (copyright 2009, Gaussian, Inc.),
 the Gaussian(R) 03 system (copyright 2003, Gaussian, Inc.),
 the Gaussian(R) 98 system (copyright 1998, Gaussian, Inc.),
 the Gaussian(R) 94 system (copyright 1995, Gaussian, Inc.),
 the Gaussian 92(TM) system (copyright 1992, Gaussian, Inc.),
 the Gaussian 90(TM) system (copyright 1990, Gaussian, Inc.),
 the Gaussian 88(TM) system (copyright 1988, Gaussian, Inc.),
 the Gaussian 86(TM) system (copyright 1986, Carnegie Mellon
 University), and the Gaussian 82(TM) system (copyright 1983,
 Carnegie Mellon University). Gaussian is a federally registered
 trademark of Gaussian, Inc.
  
 This software contains proprietary and confidential information,
 including trade secrets, belonging to Gaussian, Inc.
  
 This software is provided under written license and may be
 used, copied, transmitted, or stored only in accord with that
 written license.
  
 The following legend is applicable only to US Government
 contracts under FAR:
  
                    RESTRICTED RIGHTS LEGEND
  
 Use, reproduction and disclosure by the US Government is
 subject to restrictions as set forth in subparagraphs (a)
 and (c) of the Commercial Computer Software - Restricted
 Rights clause in FAR 52.227-19.
  
 Gaussian, Inc.
 340 Quinnipiac St., Bldg. 40, Wallingford CT 06492
  
  
 ---------------------------------------------------------------
 Warning -- This program may not be used in any manner that
 competes with the business of Gaussian, Inc. or will provide
 assistance to any competitor of Gaussian, Inc.  The licensee
 of this program is prohibited from giving any competitor of
 Gaussian, Inc. access to this program.  By using this program,
 the user acknowledges that Gaussian, Inc. is engaged in the
 business of creating and licensing software in the field of
 computational chemistry and represents and warrants to the
 licensee that it is not a competitor of Gaussian, Inc. and that
 it will not use this program in any manner prohibited above.
 ---------------------------------------------------------------
  

 Cite this work as:
 Gaussian 16, Revision B.01,
 M. J. Frisch, G. W. Trucks, H. B. Schlegel, G. E. Scuseria, 
 M. A. Robb, J. R. Cheeseman, G. Scalmani, V. Barone, 
 G. A. Petersson, H. Nakatsuji, X. Li, M. Caricato, A. V. Marenich, 
 J. Bloino, B. G. Janesko, R. Gomperts, B. Mennucci, H. P. Hratchian, 
 J. V. Ortiz, A. F. Izmaylov, J. L. Sonnenberg, D. Williams-Young, 
 F. Ding, F. Lipparini, F. Egidi, J. Goings, B. Peng, A. Petrone, 
 T. Henderson, D. Ranasinghe, V. G. Zakrzewski, J. Gao, N. Rega, 
 G. Zheng, W. Liang, M. Hada, M. Ehara, K. Toyota, R. Fukuda, 
 J. Hasegawa, M. Ishida, T. Nakajima, Y. Honda, O. Kitao, H. Nakai, 
 T. Vreven, K. Throssell, J. A. Montgomery, Jr., J. E. Peralta, 
 F. Ogliaro, M. J. Bearpark, J. J. Heyd, E. N. Brothers, K. N. Kudin, 
 V. N. Staroverov, T. A. Keith, R. Kobayashi, J. Normand, 
 K. Raghavachari, A. P. Rendell, J. C. Burant, S. S. Iyengar, 
 J. Tomasi, M. Cossi, J. M. Millam, M. Klene, C. Adamo, R. Cammi, 
 J. W. Ochterski, R. L. Martin, K. Morokuma, O. Farkas, 
 J. B. Foresman, and D. J. Fox, Gaussian, Inc., Wallingford CT, 2016.
 
 ******************************************
 Gaussian 16:  ES64L-G16RevB.01 20-Dec-2017
                19-Jan-2026 
 ******************************************
 %OldChk=/home/junhkim/WORK/Review_DD/TADF-Design/data/td_dft/results/mol_383/opt
 .chk
 %nprocshared=16
 Will use up to   16 processors via shared memory.
 %mem=60GB
 Copying data from "/home/junhkim/WORK/Review_DD/TADF-Design/data/td_dft/results/mol_383/opt.chk" to current chk file "/home/junhkim/WORK/Review_DD/TADF-Design/data/td_dft/results/mol_383/Gau-1373057.chk"
 IOpt=  2 FromEx=T IUOpen= 4 IOptOp= 5 NList=   0 IFRang= 0 IUIn= 4 IUOut= 2.
 -----------------------------------------------------------------
 # b3lyp/6-31g* TD=(Nstates=1,50-50) Geom=Check Guess=Read SCF=XQC
 -----------------------------------------------------------------
 1/29=2,38=1,172=1/1;
 2/12=2,40=1/2;
 3/5=1,6=6,7=1,11=9,14=-4,25=1,30=1,74=-5,116=-2/1,2,3,8;
 4/5=1/1;
 5/5=2,8=3,13=1,38=6/2,8;
 8/6=1,10=2,108=1/1;
 9/41=1,42=1,48=2,70=2/14;
 6/7=2,8=2,9=2,10=2/1;
 99/5=1,9=1/99;
 ------------------
 TD-DFT calculation
 ------------------
 Structure from the checkpoint file:  "/home/junhkim/WORK/Review_DD/TADF-Design/data/td_dft/results/mol_383/Gau-1373057.chk"
 Charge =  0 Multiplicity = 1
 Redundant internal coordinates found in file.  (old form).
 C,0,-1.4719685582,-2.7299395705,0.4517879313
 N,0,-1.136187766,-1.3352860496,0.2380024752
 C,0,-2.0359609676,-0.2758433858,0.1199147461
 C,0,-3.429478745,-0.2998686824,0.1779554595
 C,0,-4.1109656781,0.9082190738,0.0298963526
 C,0,-3.4106784507,2.1066304126,-0.1708273373
 Br,0,-4.4031393219,3.7314221134,-0.3669557419
 C,0,-2.0220112035,2.1440859062,-0.2305948821
 C,0,-1.332210735,0.9399050953,-0.0834622537
 C,0,0.0734159475,0.5937027158,-0.0884589908
 N,0,1.1515927218,1.3285712779,-0.2370076562
 C,0,2.3272932124,0.6349598207,-0.1828503337
 C,0,3.5502583556,1.3316630388,-0.3315456637
 C,0,4.7306183234,0.6286820361,-0.2762618861
 C,0,4.6738077842,-0.7725595837,-0.0715066767
 N,0,3.5611452212,-1.4671692167,0.072561339
 C,0,2.3840412031,-0.7924306464,0.0212466674
 N,0,1.2502254329,-1.5362500406,0.173306133
 C,0,0.144420906,-0.8385113387,0.1158648098
 H,0,-2.0157694395,-2.8587827429,1.39456707
 H,0,-2.0862676481,-3.1123916907,-0.371322568
 H,0,-0.5374025461,-3.2912190848,0.4951364546
 H,0,-3.9780943537,-1.2233018657,0.3330188877
 H,0,-5.1945094275,0.925210958,0.0698546341
 H,0,-1.4886650347,3.0750073463,-0.3861047409
 H,0,3.5138351893,2.4061650107,-0.4854262879
 H,0,5.691371772,1.1223456605,-0.3853183522
 H,0,5.601284807,-1.3430155678,-0.0254675891
 Recover connectivity data from disk.
                           ----------------------------
                           !    Current Parameters    !
                           ! (Angstroms and Degrees)  !
 --------------------------                            --------------------------
 ! Name  Definition              Value                                          !
 --------------------------------------------------------------------------------
 ! R1    R(1,2)                  1.4503                                         !
 ! R2    R(1,20)                 1.096                                          !
 ! R3    R(1,21)                 1.096                                          !
 ! R4    R(1,22)                 1.091                                          !
 ! R5    R(2,3)                  1.395                                          !
 ! R6    R(2,19)                 1.379                                          !
 ! R7    R(3,4)                  1.3949                                         !
 ! R8    R(3,9)                  1.4194                                         !
 ! R9    R(4,5)                  1.3949                                         !
 ! R10   R(4,23)                 1.0852                                         !
 ! R11   R(5,6)                  1.4025                                         !
 ! R12   R(5,24)                 1.0844                                         !
 ! R13   R(6,7)                  1.914                                          !
 ! R14   R(6,8)                  1.3905                                         !
 ! R15   R(8,9)                  1.3955                                         !
 ! R16   R(8,25)                 1.0841                                         !
 ! R17   R(9,10)                 1.4476                                         !
 ! R18   R(10,11)                1.3132                                         !
 ! R19   R(10,19)                1.4485                                         !
 ! R20   R(11,12)                1.3661                                         !
 ! R21   R(12,13)                1.4153                                         !
 ! R22   R(12,17)                1.443                                          !
 ! R23   R(13,14)                1.375                                          !
 ! R24   R(13,26)                1.0861                                         !
 ! R25   R(14,15)                1.4173                                         !
 ! R26   R(14,27)                1.0857                                         !
 ! R27   R(15,16)                1.3196                                         !
 ! R28   R(15,28)                1.0898                                         !
 ! R29   R(16,17)                1.3577                                         !
 ! R30   R(17,18)                1.3645                                         !
 ! R31   R(18,19)                1.3088                                         !
 ! A1    A(2,1,20)             110.7763                                         !
 ! A2    A(2,1,21)             110.7705                                         !
 ! A3    A(2,1,22)             107.592                                          !
 ! A4    A(20,1,21)            109.0819                                         !
 ! A5    A(20,1,22)            109.2912                                         !
 ! A6    A(21,1,22)            109.2958                                         !
 ! A7    A(1,2,3)              126.4024                                         !
 ! A8    A(1,2,19)             125.0618                                         !
 ! A9    A(3,2,19)             108.5357                                         !
 ! A10   A(2,3,4)              128.8845                                         !
 ! A11   A(2,3,9)              110.0496                                         !
 ! A12   A(4,3,9)              121.0658                                         !
 ! A13   A(3,4,5)              117.9511                                         !
 ! A14   A(3,4,23)             121.7094                                         !
 ! A15   A(5,4,23)             120.3395                                         !
 ! A16   A(4,5,6)              120.7505                                         !
 ! A17   A(4,5,24)             119.8555                                         !
 ! A18   A(6,5,24)             119.394                                          !
 ! A19   A(5,6,7)              118.76                                           !
 ! A20   A(5,6,8)              121.8608                                         !
 ! A21   A(7,6,8)              119.3792                                         !
 ! A22   A(6,8,9)              117.7671                                         !
 ! A23   A(6,8,25)             121.3751                                         !
 ! A24   A(9,8,25)             120.8578                                         !
 ! A25   A(3,9,8)              120.6047                                         !
 ! A26   A(3,9,10)             106.0859                                         !
 ! A27   A(8,9,10)             133.3094                                         !
 ! A28   A(9,10,11)            131.5865                                         !
 ! A29   A(9,10,19)            106.4739                                         !
 ! A30   A(11,10,19)           121.9396                                         !
 ! A31   A(10,11,12)           114.7066                                         !
 ! A32   A(11,12,13)           119.3108                                         !
 ! A33   A(11,12,17)           122.7975                                         !
 ! A34   A(13,12,17)           117.8917                                         !
 ! A35   A(12,13,14)           119.071                                          !
 ! A36   A(12,13,26)           118.2238                                         !
 ! A37   A(14,13,26)           122.7052                                         !
 ! A38   A(13,14,15)           118.4828                                         !
 ! A39   A(13,14,27)           121.5462                                         !
 ! A40   A(15,14,27)           119.971                                          !
 ! A41   A(14,15,16)           124.7513                                         !
 ! A42   A(14,15,28)           119.308                                          !
 ! A43   A(16,15,28)           115.9407                                         !
 ! A44   A(15,16,17)           117.7295                                         !
 ! A45   A(12,17,16)           122.0737                                         !
 ! A46   A(12,17,18)           121.4861                                         !
 ! A47   A(16,17,18)           116.4403                                         !
 ! A48   A(17,18,19)           113.9884                                         !
 ! A49   A(2,19,10)            108.8548                                         !
 ! A50   A(2,19,18)            126.0633                                         !
 ! A51   A(10,19,18)           125.0819                                         !
 ! D1    D(20,1,2,3)           -60.6849                                         !
 ! D2    D(20,1,2,19)          119.3873                                         !
 ! D3    D(21,1,2,3)            60.5036                                         !
 ! D4    D(21,1,2,19)         -119.4242                                         !
 ! D5    D(22,1,2,3)           179.9105                                         !
 ! D6    D(22,1,2,19)           -0.0174                                         !
 ! D7    D(1,2,3,4)              0.0578                                         !
 ! D8    D(1,2,3,9)           -179.9472                                         !
 ! D9    D(19,2,3,4)           179.9955                                         !
 ! D10   D(19,2,3,9)            -0.0095                                         !
 ! D11   D(1,2,19,10)          179.9483                                         !
 ! D12   D(1,2,19,18)           -0.0504                                         !
 ! D13   D(3,2,19,10)            0.0095                                         !
 ! D14   D(3,2,19,18)         -179.9891                                         !
 ! D15   D(2,3,4,5)            179.996                                          !
 ! D16   D(2,3,4,23)            -0.0033                                         !
 ! D17   D(9,3,4,5)              0.0015                                         !
 ! D18   D(9,3,4,23)          -179.9978                                         !
 ! D19   D(2,3,9,8)           -179.9953                                         !
 ! D20   D(2,3,9,10)             0.0055                                         !
 ! D21   D(4,3,9,8)              0.0002                                         !
 ! D22   D(4,3,9,10)          -179.999                                          !
 ! D23   D(3,4,5,6)             -0.002                                          !
 ! D24   D(3,4,5,24)           179.9993                                         !
 ! D25   D(23,4,5,6)           179.9974                                         !
 ! D26   D(23,4,5,24)           -0.0014                                         !
 ! D27   D(4,5,6,7)           -179.999                                          !
 ! D28   D(4,5,6,8)              0.0008                                         !
 ! D29   D(24,5,6,7)            -0.0002                                         !
 ! D30   D(24,5,6,8)           179.9996                                         !
 ! D31   D(5,6,8,9)              0.0009                                         !
 ! D32   D(5,6,8,25)           179.9997                                         !
 ! D33   D(7,6,8,9)           -179.9994                                         !
 ! D34   D(7,6,8,25)            -0.0005                                         !
 ! D35   D(6,8,9,3)             -0.0014                                         !
 ! D36   D(6,8,9,10)           179.9976                                         !
 ! D37   D(25,8,9,3)           179.9998                                         !
 ! D38   D(25,8,9,10)           -0.0012                                         !
 ! D39   D(3,9,10,11)          179.9974                                         !
 ! D40   D(3,9,10,19)            0.0003                                         !
 ! D41   D(8,9,10,11)           -0.0017                                         !
 ! D42   D(8,9,10,19)         -179.9988                                         !
 ! D43   D(9,10,11,12)        -179.995                                          !
 ! D44   D(19,10,11,12)          0.0017                                         !
 ! D45   D(9,10,19,2)           -0.0061                                         !
 ! D46   D(9,10,19,18)         179.9926                                         !
 ! D47   D(11,10,19,2)         179.9965                                         !
 ! D48   D(11,10,19,18)         -0.0049                                         !
 ! D49   D(10,11,12,13)       -179.9993                                         !
 ! D50   D(10,11,12,17)          0.0024                                         !
 ! D51   D(11,12,13,14)       -179.9979                                         !
 ! D52   D(11,12,13,26)          0.0019                                         !
 ! D53   D(17,12,13,14)          0.0006                                         !
 ! D54   D(17,12,13,26)       -179.9997                                         !
 ! D55   D(11,12,17,16)        179.9971                                         !
 ! D56   D(11,12,17,18)         -0.0042                                         !
 ! D57   D(13,12,17,16)         -0.0013                                         !
 ! D58   D(13,12,17,18)        179.9975                                         !
 ! D59   D(12,13,14,15)          0.0003                                         !
 ! D60   D(12,13,14,27)       -179.9999                                         !
 ! D61   D(26,13,14,15)       -179.9995                                         !
 ! D62   D(26,13,14,27)          0.0003                                         !
 ! D63   D(13,14,15,16)         -0.0005                                         !
 ! D64   D(13,14,15,28)        179.9992                                         !
 ! D65   D(27,14,15,16)        179.9997                                         !
 ! D66   D(27,14,15,28)         -0.0006                                         !
 ! D67   D(14,15,16,17)         -0.0002                                         !
 ! D68   D(28,15,16,17)       -179.9999                                         !
 ! D69   D(15,16,17,12)          0.0011                                         !
 ! D70   D(15,16,17,18)       -179.9977                                         !
 ! D71   D(12,17,18,19)          0.0012                                         !
 ! D72   D(16,17,18,19)       -179.9999                                         !
 ! D73   D(17,18,19,2)        -179.9986                                         !
 ! D74   D(17,18,19,10)          0.003                                          !
 --------------------------------------------------------------------------------
                          Input orientation:                          
 ---------------------------------------------------------------------
 Center     Atomic      Atomic             Coordinates (Angstroms)
 Number     Number       Type             X           Y           Z
 ---------------------------------------------------------------------
      1          6           0       -1.471969   -2.729940    0.451788
      2          7           0       -1.136188   -1.335286    0.238002
      3          6           0       -2.035961   -0.275843    0.119915
      4          6           0       -3.429479   -0.299869    0.177955
      5          6           0       -4.110966    0.908219    0.029896
      6          6           0       -3.410678    2.106630   -0.170827
      7         35           0       -4.403139    3.731422   -0.366956
      8          6           0       -2.022011    2.144086   -0.230595
      9          6           0       -1.332211    0.939905   -0.083462
     10          6           0        0.073416    0.593703   -0.088459
     11          7           0        1.151593    1.328571   -0.237008
     12          6           0        2.327293    0.634960   -0.182850
     13          6           0        3.550258    1.331663   -0.331546
     14          6           0        4.730618    0.628682   -0.276262
     15          6           0        4.673808   -0.772560   -0.071507
     16          7           0        3.561145   -1.467169    0.072561
     17          6           0        2.384041   -0.792431    0.021247
     18          7           0        1.250225   -1.536250    0.173306
     19          6           0        0.144421   -0.838511    0.115865
     20          1           0       -2.015769   -2.858783    1.394567
     21          1           0       -2.086268   -3.112392   -0.371323
     22          1           0       -0.537403   -3.291219    0.495136
     23          1           0       -3.978094   -1.223302    0.333019
     24          1           0       -5.194509    0.925211    0.069855
     25          1           0       -1.488665    3.075007   -0.386105
     26          1           0        3.513835    2.406165   -0.485426
     27          1           0        5.691372    1.122346   -0.385318
     28          1           0        5.601285   -1.343016   -0.025468
 ---------------------------------------------------------------------
                    Distance matrix (angstroms):
                    1          2          3          4          5
     1  C    0.000000
     2  N    1.450349   0.000000
     3  C    2.539846   1.394975   0.000000
     4  C    3.132423   2.516918   1.394933   0.000000
     5  C    4.514255   3.731746   2.390764   1.394927   0.000000
     6  C    5.247729   4.145749   2.765965   2.431716   1.402456
     7  Br   7.142219   6.058917   4.679610   4.182852   2.865891
     8  C    4.952203   3.620814   2.445222   2.849700   2.441097
     9  C    3.711305   2.306135   1.419391   2.450288   2.781247
    10  C    3.704953   2.300156   2.291070   3.624875   4.197854
    11  N    4.881498   3.543404   3.586368   4.879572   5.286062
    12  C    5.114656   4.006830   4.467574   5.843330   6.447566
    13  C    6.506381   5.422156   5.830415   7.185974   7.681426
    14  C    7.091014   6.208144   6.838254   8.225309   8.851298
    15  C    6.471147   5.845383   6.730852   8.120894   8.944694
    16  N    5.202945   4.702095   5.722683   7.088196   8.031536
    17  C    4.336833   3.568429   4.451182   5.836453   6.713970
    18  N    2.985429   2.395734   3.520014   4.840278   5.893926
    19  C    2.510590   1.379007   2.251816   3.614796   4.600736
    20  H    1.095971   2.105314   2.880403   3.166506   4.521336
    21  H    1.095967   2.105239   2.879210   3.164839   4.519479
    22  H    1.091021   2.061634   3.388061   4.172875   5.533722
    23  H    2.926556   2.845699   2.171399   1.085243   2.157063
    24  H    5.230995   4.648451   3.379566   2.151241   1.084413
    25  H    5.865130   4.468158   3.432752   3.933791   3.427023
    26  H    7.219154   6.012031   6.193532   7.481464   7.787618
    27  H    8.176447   7.283135   7.869045   9.248237   9.813464
    28  H    7.223728   6.742627   7.712815   9.093087   9.969901
                    6          7          8          9         10
     6  C    0.000000
     7  Br   1.913999   0.000000
     8  C    1.390457   2.864961   0.000000
     9  C    2.385143   4.159752   1.395537   0.000000
    10  C    3.799296   5.473791   2.610499   1.447642   0.000000
    11  N    4.628615   6.053563   3.276716   2.518713   1.313226
    12  C    5.923705   7.410850   4.603932   3.673532   2.256230
    13  C    7.005787   8.307625   5.632088   4.904439   3.562599
    14  C    8.275032   9.646800   6.920733   6.073873   4.661119
    15  C    8.582454  10.137263   7.305212   6.245393   4.799017
    16  N    7.838215   9.520943   6.656178   5.455574   4.054303
    17  C    6.482301   8.165890   5.300929   4.101522   2.696737
    18  N    5.925625   7.746017   4.941208   3.586956   2.447468
    19  C    4.625450   6.465115   3.702614   2.320116   1.448457
    20  H    5.389950   7.227261   5.260217   4.133020   4.299269
    21  H    5.388177   7.225351   5.258754   4.131897   4.298765
    22  H    6.151098   8.062544   5.680958   4.343836   3.975714
    23  H    3.415300   5.021944   3.934873   3.442909   4.460256
    24  H    2.153075   2.948201   3.411843   3.865368   5.280720
    25  H    2.162923   2.987542   1.084092   2.162113   2.947128
    26  H    6.938125   8.028003   5.547902   5.078942   3.908847
    27  H    9.157627  10.426254   7.782298   7.032433   5.650577
    28  H    9.650734  11.222969   8.385499   7.299894   5.857660
                   11         12         13         14         15
    11  N    0.000000
    12  C    1.366126   0.000000
    13  C    2.400530   1.415327   0.000000
    14  C    3.647028   2.405148   1.374950   0.000000
    15  C    4.104649   2.738547   2.399528   1.417262   0.000000
    16  N    3.703774   2.450831   2.827876   2.425271   1.319567
    17  C    2.466632   1.443024   2.448734   2.759438   2.291731
    18  N    2.895736   2.449709   3.710789   4.123370   3.516258
    19  C    2.415608   2.650524   4.063196   4.831110   4.533741
    20  H    5.498014   5.792812   7.177741   7.776106   7.159060
    21  H    5.497630   5.792899   7.177857   7.776542   7.159841
    22  H    4.973048   4.907242   6.226027   6.611560   5.815621
    23  H    5.757662   6.593722   7.977818   8.924278   8.673074
    24  H    6.366308   7.531641   8.763406   9.935587  10.014294
    25  H    3.169106   4.533948   5.332258   6.684015   7.271782
    26  H    2.608277   2.153277   1.086076   2.164199   3.408982
    27  H    4.546880   3.405226   2.151993   1.085654   2.173610
    28  H    5.194409   3.828339   3.384420   2.169919   1.089841
                   16         17         18         19         20
    16  N    0.000000
    17  C    1.357748   0.000000
    18  N    2.314146   1.364525   0.000000
    19  C    3.474348   2.242092   1.308794   0.000000
    20  H    5.897988   5.051154   3.729248   3.222266   0.000000
    21  H    5.898903   5.051731   3.730017   3.222399   1.785400
    22  H    4.505976   3.873416   2.525689   2.573811   1.783689
    23  H    7.547678   6.384326   5.240112   4.146125   2.766297
    24  H    9.076617   7.770913   6.899572   5.622901   5.116430
    25  H    6.807520   5.488248   5.392417   4.270196   6.217596
    26  H    3.913605   3.429893   4.593527   4.716188   7.863242
    27  H    3.384244   3.843189   5.206148   5.904643   8.855360
    28  H    2.046263   3.264350   4.359882   5.481958   7.895161
                   21         22         23         24         25
    21  H    0.000000
    22  H    1.783736   0.000000
    23  H    2.764736   4.017577   0.000000
    24  H    5.114493   6.296649   2.482948   0.000000
    25  H    6.216209   6.496947   5.018950   4.308458   0.000000
    26  H    7.863119   7.059335   8.364920   8.850809   5.047992
    27  H    8.855782   7.684555   9.975803  10.897176   7.440821
    28  H    7.896124   6.461425   9.586832  11.031913   8.361601
                   26         27         28
    26  H    0.000000
    27  H    2.529798   0.000000
    28  H    4.315711   2.493113   0.000000
 Stoichiometry    C14H9BrN4
 Framework group  C1[X(C14H9BrN4)]
 Deg. of freedom    78
 Full point group                 C1      NOp   1
 Largest Abelian subgroup         C1      NOp   1
 Largest concise Abelian subgroup C1      NOp   1
                         Standard orientation:                         
 ---------------------------------------------------------------------
 Center     Atomic      Atomic             Coordinates (Angstroms)
 Number     Number       Type             X           Y           Z
 ---------------------------------------------------------------------
      1          6           0        0.848010    3.550810    0.000567
      2          7           0        0.568713    2.127608   -0.000399
      3          6           0       -0.692465    1.531466   -0.000216
      4          6           0       -1.948180    2.138934   -0.000192
      5          6           0       -3.073358    1.314435   -0.000076
      6          6           0       -2.939366   -0.081605   -0.000026
      7         35           0       -4.521600   -1.158605    0.000104
      8          6           0       -1.693683   -0.699380   -0.000074
      9          6           0       -0.562592    0.118029   -0.000155
     10          6           0        0.859238   -0.154126   -0.000178
     11          7           0        1.530691   -1.282716   -0.000099
     12          6           0        2.889224   -1.138876   -0.000048
     13          6           0        3.708183   -2.293196    0.000023
     14          6           0        5.074873   -2.142705    0.000118
     15          6           0        5.610352   -0.830496    0.000149
     16          7           0        4.890707    0.275563    0.000082
     17          6           0        3.538808    0.149674   -0.000028
     18          7           0        2.820567    1.309871   -0.000143
     19          6           0        1.523795    1.132882   -0.000244
     20          1           0        0.430099    4.029608   -0.892324
     21          1           0        0.428208    4.028659    0.893075
     22          1           0        1.932041    3.674109    0.001731
     23          1           0       -2.059611    3.218441   -0.000273
     24          1           0       -4.064698    1.753977   -0.000043
     25          1           0       -1.599259   -1.779352   -0.000031
     26          1           0        3.224912   -3.265826    0.000003
     27          1           0        5.740725   -3.000192    0.000174
     28          1           0        6.691815   -0.695622    0.000239
 ---------------------------------------------------------------------
 Rotational constants (GHZ):           0.7033085           0.1379684           0.1154264
 Standard basis: 6-31G(d) (6D, 7F)
 There are   318 symmetry adapted cartesian basis functions of A   symmetry.
 There are   318 symmetry adapted basis functions of A   symmetry.
   318 basis functions,   623 primitive gaussians,   318 cartesian basis functions
    78 alpha electrons       78 beta electrons
       nuclear repulsion energy      1611.1899283137 Hartrees.
 NAtoms=   28 NActive=   28 NUniq=   28 SFac= 1.00D+00 NAtFMM=   60 NAOKFM=F Big=F
 Integral buffers will be    131072 words long.
 Regular integral format.
 Two-electron integral symmetry is turned on.
 One-electron integrals computed using PRISM.
 NBasis=   318 RedAO= T EigKep=  3.20D-04  NBF=   318
 NBsUse=   318 1.00D-06 EigRej= -1.00D+00 NBFU=   318
 Initial guess from the checkpoint file:  "/home/junhkim/WORK/Review_DD/TADF-Design/data/td_dft/results/mol_383/Gau-1373057.chk"
 B after Tr=     0.000000   -0.000000   -0.000000
         Rot=    1.000000   -0.000000    0.000000    0.000000 Ang=   0.00 deg.
 Requested convergence on RMS density matrix=1.00D-08 within  32 cycles.
 Requested convergence on MAX density matrix=1.00D-06.
 Requested convergence on             energy=1.00D-06.
 No special actions if energy rises.
 SCF Done:  E(RB3LYP) =  -3329.65003818     A.U. after    1 cycles
            NFock=  1  Conv=0.56D-08     -V/T= 2.0069
 QCSCF skips out because SCF is already converged.
 DoSCS=F DFT=T ScalE2(SS,OS)=  1.000000  1.000000
 ExpMin= 1.43D-01 ExpMax= 5.74D+05 ExpMxC= 5.74D+03 IAcc=3 IRadAn=         5 AccDes= 0.00D+00
 HarFok:  IExCor=  205 AccDes= 0.00D+00 IRadAn=         5 IDoV=-2 UseB2=F ITyADJ=14
 ICtDFT= 12500011 ScaDFX=  1.000000  1.000000  1.000000  1.000000
 GSVD:  LWork=       -1280 too small for GESVD, short by        5600 words or        5600 for optimal perf.
 Range of M.O.s used for correlation:    33   318
 NBasis=   318 NAE=    78 NBE=    78 NFC=    32 NFV=     0
 NROrb=    286 NOA=    46 NOB=    46 NVA=   240 NVB=   240

 **** Warning!!: The largest alpha MO coefficient is  0.19673308D+02

 Orbital symmetries:
       Occupied  (A) (A) (A) (A) (A) (A) (A) (A) (A) (A) (A) (A)
                 (A) (A) (A) (A) (A) (A) (A) (A) (A) (A) (A) (A)
                 (A) (A) (A) (A) (A) (A) (A) (A) (A) (A) (A) (A)
                 (A) (A) (A) (A) (A) (A) (A) (A) (A) (A) (A) (A)
                 (A) (A) (A) (A) (A) (A) (A) (A) (A) (A) (A) (A)
                 (A) (A) (A) (A) (A) (A) (A) (A) (A) (A) (A) (A)
                 (A) (A) (A) (A) (A) (A)
       Virtual   (A) (A) (A) (A) (A) (A) (A) (A) (A) (A) (A) (A)
                 (A) (A) (A) (A) (A) (A) (A) (A) (A) (A) (A) (A)
                 (A) (A) (A) (A) (A) (A) (A) (A) (A) (A) (A) (A)
                 (A) (A) (A) (A) (A) (A) (A) (A) (A) (A) (A) (A)
                 (A) (A) (A) (A) (A) (A) (A) (A) (A) (A) (A) (A)
                 (A) (A) (A) (A) (A) (A) (A) (A) (A) (A) (A) (A)
                 (A) (A) (A) (A) (A) (A) (A) (A) (A) (A) (A) (A)
                 (A) (A) (A) (A) (A) (A) (A) (A) (A) (A) (A) (A)
                 (A) (A) (A) (A) (A) (A) (A) (A) (A) (A) (A) (A)
                 (A) (A) (A) (A) (A) (A) (A) (A) (A) (A) (A) (A)
                 (A) (A) (A) (A) (A) (A) (A) (A) (A) (A) (A) (A)
                 (A) (A) (A) (A) (A) (A) (A) (A) (A) (A) (A) (A)
                 (A) (A) (A) (A) (A) (A) (A) (A) (A) (A) (A) (A)
                 (A) (A) (A) (A) (A) (A) (A) (A) (A) (A) (A) (A)
                 (A) (A) (A) (A) (A) (A) (A) (A) (A) (A) (A) (A)
                 (A) (A) (A) (A) (A) (A) (A) (A) (A) (A) (A) (A)
                 (A) (A) (A) (A) (A) (A) (A) (A) (A) (A) (A) (A)
                 (A) (A) (A) (A) (A) (A) (A) (A) (A) (A) (A) (A)
                 (A) (A) (A) (A) (A) (A) (A) (A) (A) (A) (A) (A)
                 (A) (A) (A) (A) (A) (A) (A) (A) (A) (A) (A) (A)
     8 initial guesses have been made.
 Convergence on wavefunction:    0.001000000000000
 Iteration     1 Dimension     8 NMult     0 NNew      8
 CISAX will form     8 AO SS matrices at one time.
 New state      1 was old state      2
 New state      2 was old state      4
 New state      3 was old state      6
 New state      4 was old state      5
 Vector   2 SDiff=1.11D-03 TDiff=3.65D+00 assumed to be singlet.
 Vector   4 SDiff=3.70D+00 TDiff=1.16D-03 assumed to be triplet.
 Iteration     2 Dimension    12 NMult     8 NNew      4
 New state      2 was old state      4
 Iteration     3 Dimension    16 NMult    12 NNew      4
 Iteration     4 Dimension    20 NMult    16 NNew      4
 Iteration     5 Dimension    24 NMult    20 NNew      4
 Iteration     6 Dimension    28 NMult    24 NNew      4
 Iteration     7 Dimension    32 NMult    28 NNew      4
 Iteration     8 Dimension    34 NMult    32 NNew      2
 Iteration     9 Dimension    36 NMult    34 NNew      2
 Iteration    10 Dimension    38 NMult    36 NNew      2
 ***********************************************************************
 Excited states from <AA,BB:AA,BB> singles matrix:
 ***********************************************************************
 
 Ground to excited state transition densities written to RWF  633
 Ground to excited state transition electric dipole moments (Au):
       state          X           Y           Z        Dip. S.      Osc.
         1        -0.0000      0.0000      0.0000      0.0000      0.0000
         2         0.4215      0.3053      0.0002      0.2709      0.0204
 Ground to excited state transition velocity dipole moments (Au):
       state          X           Y           Z        Dip. S.      Osc.
         1        -0.0000     -0.0000     -0.0000      0.0000      0.0000
         2        -0.0516     -0.0471     -0.0000      0.0049      0.0288
 Ground to excited state transition magnetic dipole moments (Au):
       state          X           Y           Z
         1        -0.0000      0.0000     -0.0000
         2        -0.0002      0.0016      0.2076
 Ground to excited state transition velocity quadrupole moments (Au):
       state          XX          YY          ZZ          XY          XZ          YZ
         1        -0.0000      0.0000     -0.0000     -0.0000     -0.0000     -0.0000
         2        -0.3938     -0.0593      0.0064      0.0556     -0.0015     -0.0001
 <0|del|b> * <b|rxdel|0> + <0|del|b> * <b|delr+rdel|0>
 Rotatory Strengths (R) in cgs (10**-40 erg-esu-cm/Gauss)
       state          XX          YY          ZZ    R(velocity)    E-M Angle
         1        -0.0000      0.0000     -0.0000     -0.0000       90.00
         2        -0.4888      0.0456      0.0022     -0.1470       90.00
 1/2[<0|r|b>*<b|rxdel|0> + (<0|rxdel|b>*<b|r|0>)*]
 Rotatory Strengths (R) in cgs (10**-40 erg-esu-cm/Gauss)
       state          XX          YY          ZZ     R(length)
         1        -0.0000     -0.0000      0.0000     -0.0000
         2         0.0733     -0.3562     -0.0332     -0.1053
  1/2[<0|del|b>*<b|r|0> + (<0|r|b>*<b|del|0>)*] (Au)
       state          X           Y           Z        Dip. S.   Osc.(frdel)
         1         0.0000     -0.0000     -0.0000     -0.0000     -0.0000
         2        -0.0218     -0.0144     -0.0000      0.0361      0.0241

 Excitation energies and oscillator strengths:
 
 Excited State   1:      Triplet-A      2.4597 eV  504.07 nm  f=0.0000  <S**2>=2.000
      75 -> 79         0.20757
      77 -> 79         0.15762
      78 -> 79         0.63891
 This state for optimization and/or second-order correction.
 Total Energy, E(TD-HF/TD-DFT) =  -3329.55964726    
 Copying the excited state density for this state as the 1-particle RhoCI density.
 
 Excited State   2:      Singlet-A      3.0759 eV  403.09 nm  f=0.0204  <S**2>=0.000
      78 -> 79         0.69874
 SavETr:  write IOETrn=   770 NScale= 10 NData=  16 NLR=1 NState=    2 LETran=      46.

 **********************************************************************

            Population analysis using the SCF Density.

 **********************************************************************

 Orbital symmetries:
       Occupied  (A) (A) (A) (A) (A) (A) (A) (A) (A) (A) (A) (A)
                 (A) (A) (A) (A) (A) (A) (A) (A) (A) (A) (A) (A)
                 (A) (A) (A) (A) (A) (A) (A) (A) (A) (A) (A) (A)
                 (A) (A) (A) (A) (A) (A) (A) (A) (A) (A) (A) (A)
                 (A) (A) (A) (A) (A) (A) (A) (A) (A) (A) (A) (A)
                 (A) (A) (A) (A) (A) (A) (A) (A) (A) (A) (A) (A)
                 (A) (A) (A) (A) (A) (A)
       Virtual   (A) (A) (A) (A) (A) (A) (A) (A) (A) (A) (A) (A)
                 (A) (A) (A) (A) (A) (A) (A) (A) (A) (A) (A) (A)
                 (A) (A) (A) (A) (A) (A) (A) (A) (A) (A) (A) (A)
                 (A) (A) (A) (A) (A) (A) (A) (A) (A) (A) (A) (A)
                 (A) (A) (A) (A) (A) (A) (A) (A) (A) (A) (A) (A)
                 (A) (A) (A) (A) (A) (A) (A) (A) (A) (A) (A) (A)
                 (A) (A) (A) (A) (A) (A) (A) (A) (A) (A) (A) (A)
                 (A) (A) (A) (A) (A) (A) (A) (A) (A) (A) (A) (A)
                 (A) (A) (A) (A) (A) (A) (A) (A) (A) (A) (A) (A)
                 (A) (A) (A) (A) (A) (A) (A) (A) (A) (A) (A) (A)
                 (A) (A) (A) (A) (A) (A) (A) (A) (A) (A) (A) (A)
                 (A) (A) (A) (A) (A) (A) (A) (A) (A) (A) (A) (A)
                 (A) (A) (A) (A) (A) (A) (A) (A) (A) (A) (A) (A)
                 (A) (A) (A) (A) (A) (A) (A) (A) (A) (A) (A) (A)
                 (A) (A) (A) (A) (A) (A) (A) (A) (A) (A) (A) (A)
                 (A) (A) (A) (A) (A) (A) (A) (A) (A) (A) (A) (A)
                 (A) (A) (A) (A) (A) (A) (A) (A) (A) (A) (A) (A)
                 (A) (A) (A) (A) (A) (A) (A) (A) (A) (A) (A) (A)
                 (A) (A) (A) (A) (A) (A) (A) (A) (A) (A) (A) (A)
                 (A) (A) (A) (A) (A) (A) (A) (A) (A) (A) (A) (A)
 The electronic state is 1-A.
 Alpha  occ. eigenvalues -- -482.91187 -61.87360 -56.39496 -56.39083 -56.39070
 Alpha  occ. eigenvalues --  -14.39928 -14.35468 -14.34497 -14.33126 -10.27391
 Alpha  occ. eigenvalues --  -10.26161 -10.25115 -10.25045 -10.24477 -10.23845
 Alpha  occ. eigenvalues --  -10.23708 -10.23265 -10.21759 -10.21616 -10.21529
 Alpha  occ. eigenvalues --  -10.21330 -10.21231 -10.20471  -8.58498  -6.53901
 Alpha  occ. eigenvalues --   -6.52610  -6.52596  -2.65470  -2.65100  -2.65090
 Alpha  occ. eigenvalues --   -2.64060  -2.64060  -1.02554  -0.97854  -0.93924
 Alpha  occ. eigenvalues --   -0.91288  -0.87723  -0.82208  -0.80111  -0.79473
 Alpha  occ. eigenvalues --   -0.75685  -0.75051  -0.71401  -0.68396  -0.65327
 Alpha  occ. eigenvalues --   -0.63003  -0.61396  -0.59578  -0.57265  -0.55599
 Alpha  occ. eigenvalues --   -0.51834  -0.51220  -0.49007  -0.48892  -0.47680
 Alpha  occ. eigenvalues --   -0.47137  -0.46006  -0.45645  -0.44446  -0.44247
 Alpha  occ. eigenvalues --   -0.41352  -0.41140  -0.41081  -0.39110  -0.37763
 Alpha  occ. eigenvalues --   -0.37762  -0.36742  -0.36350  -0.33614  -0.32029
 Alpha  occ. eigenvalues --   -0.29692  -0.29316  -0.28898  -0.28178  -0.26522
 Alpha  occ. eigenvalues --   -0.24387  -0.24002  -0.22019
 Alpha virt. eigenvalues --   -0.08564  -0.03340  -0.00879  -0.00293   0.00387
 Alpha virt. eigenvalues --    0.01036   0.08958   0.09199   0.10282   0.11395
 Alpha virt. eigenvalues --    0.13889   0.14199   0.14303   0.15526   0.15795
 Alpha virt. eigenvalues --    0.16611   0.17286   0.17492   0.18913   0.20193
 Alpha virt. eigenvalues --    0.20888   0.22896   0.23441   0.25023   0.25983
 Alpha virt. eigenvalues --    0.27448   0.28484   0.30002   0.31787   0.32348
 Alpha virt. eigenvalues --    0.34177   0.36049   0.36899   0.37920   0.40485
 Alpha virt. eigenvalues --    0.42466   0.44165   0.44484   0.45473   0.46189
 Alpha virt. eigenvalues --    0.46333   0.47482   0.47755   0.48400   0.49031
 Alpha virt. eigenvalues --    0.49420   0.49984   0.50799   0.52241   0.52771
 Alpha virt. eigenvalues --    0.53587   0.53734   0.54340   0.56268   0.56525
 Alpha virt. eigenvalues --    0.58036   0.58212   0.58832   0.58942   0.59158
 Alpha virt. eigenvalues --    0.59453   0.62524   0.62672   0.63367   0.64059
 Alpha virt. eigenvalues --    0.64710   0.65851   0.66163   0.66196   0.68566
 Alpha virt. eigenvalues --    0.69487   0.70785   0.71965   0.72174   0.73488
 Alpha virt. eigenvalues --    0.76787   0.78071   0.78561   0.79124   0.80182
 Alpha virt. eigenvalues --    0.80857   0.81531   0.82296   0.82783   0.83272
 Alpha virt. eigenvalues --    0.84047   0.84437   0.86484   0.87080   0.88144
 Alpha virt. eigenvalues --    0.88875   0.89658   0.90191   0.92160   0.92399
 Alpha virt. eigenvalues --    0.93992   0.94392   0.94969   0.96551   0.98077
 Alpha virt. eigenvalues --    0.98745   1.00782   1.02942   1.06043   1.07033
 Alpha virt. eigenvalues --    1.09066   1.12838   1.13660   1.14646   1.17419
 Alpha virt. eigenvalues --    1.18319   1.19591   1.20479   1.23468   1.25341
 Alpha virt. eigenvalues --    1.25445   1.27864   1.29834   1.30654   1.31919
 Alpha virt. eigenvalues --    1.31935   1.33367   1.36985   1.38741   1.38998
 Alpha virt. eigenvalues --    1.41006   1.43237   1.43392   1.45944   1.46362
 Alpha virt. eigenvalues --    1.47249   1.48761   1.49308   1.50358   1.50492
 Alpha virt. eigenvalues --    1.54221   1.57073   1.59976   1.63357   1.65363
 Alpha virt. eigenvalues --    1.67644   1.70518   1.71843   1.73916   1.76009
 Alpha virt. eigenvalues --    1.77766   1.79081   1.79608   1.80316   1.82135
 Alpha virt. eigenvalues --    1.83774   1.84777   1.85348   1.86599   1.89728
 Alpha virt. eigenvalues --    1.90634   1.92537   1.94482   1.95019   1.96927
 Alpha virt. eigenvalues --    1.99544   2.01376   2.02779   2.02835   2.05041
 Alpha virt. eigenvalues --    2.07989   2.10898   2.11692   2.12801   2.13722
 Alpha virt. eigenvalues --    2.16270   2.16967   2.18548   2.19644   2.21254
 Alpha virt. eigenvalues --    2.21406   2.23732   2.24934   2.26426   2.27442
 Alpha virt. eigenvalues --    2.31837   2.32493   2.33370   2.34713   2.37471
 Alpha virt. eigenvalues --    2.37726   2.40657   2.41832   2.43475   2.47736
 Alpha virt. eigenvalues --    2.51082   2.51422   2.52705   2.59012   2.60014
 Alpha virt. eigenvalues --    2.60577   2.61601   2.63757   2.65291   2.66580
 Alpha virt. eigenvalues --    2.66709   2.68590   2.70679   2.72615   2.75581
 Alpha virt. eigenvalues --    2.75926   2.79062   2.81272   2.83972   2.86297
 Alpha virt. eigenvalues --    2.90015   2.97450   2.99536   3.02387   3.06233
 Alpha virt. eigenvalues --    3.22901   3.26042   3.35729   3.45432   3.53092
 Alpha virt. eigenvalues --    4.02996   4.05771   4.06243   4.07886   4.10622
 Alpha virt. eigenvalues --    4.14287   4.16419   4.20078   4.25430   4.30251
 Alpha virt. eigenvalues --    4.35879   4.40596   4.43050   4.51608   4.63206
 Alpha virt. eigenvalues --    4.67959   4.76529   4.85438   8.60600  72.80523
          Condensed to atoms (all electrons):
               1          2          3          4          5          6
     1  C    4.999585   0.289770  -0.043572  -0.002856  -0.000131   0.000010
     2  N    0.289770   7.151921   0.278661  -0.092506   0.005679  -0.000272
     3  C   -0.043572   0.278661   4.697875   0.481019  -0.000544  -0.034986
     4  C   -0.002856  -0.092506   0.481019   5.095600   0.482648  -0.020284
     5  C   -0.000131   0.005679  -0.000544   0.482648   4.961753   0.508554
     6  C    0.000010  -0.000272  -0.034986  -0.020284   0.508554   4.826323
     7  Br  -0.000000   0.000002   0.000537   0.005368  -0.054553   0.253902
     8  C   -0.000066   0.009807  -0.075203  -0.056413  -0.033886   0.469717
     9  C    0.004529  -0.031598   0.455280  -0.048749  -0.039881   0.002282
    10  C    0.006686  -0.084588   0.021988   0.014802   0.000171   0.007407
    11  N   -0.000097   0.006358   0.008176  -0.000118   0.000006   0.000173
    12  C   -0.000018   0.001059   0.000051   0.000006   0.000000   0.000003
    13  C    0.000000   0.000009   0.000006  -0.000000  -0.000000  -0.000000
    14  C   -0.000000   0.000000  -0.000000   0.000000   0.000000   0.000000
    15  C    0.000000   0.000000  -0.000000   0.000000   0.000000  -0.000000
    16  N    0.000005  -0.000047  -0.000001  -0.000000   0.000000  -0.000000
    17  C    0.000059   0.002426  -0.000245  -0.000002   0.000000   0.000000
    18  N   -0.006928  -0.080244   0.000012  -0.000180   0.000002  -0.000000
    19  C   -0.035426   0.279356  -0.092825   0.002378  -0.000116  -0.000266
    20  H    0.374913  -0.040810  -0.000676   0.002544  -0.000000  -0.000001
    21  H    0.374883  -0.040813  -0.000679   0.002555  -0.000000  -0.000001
    22  H    0.375648  -0.032790   0.001979   0.000061   0.000001  -0.000000
    23  H    0.004494  -0.007784  -0.033016   0.351852  -0.038745   0.003570
    24  H   -0.000001  -0.000091   0.002753  -0.037433   0.359172  -0.038464
    25  H    0.000003  -0.000083   0.004466   0.000087   0.004875  -0.044394
    26  H    0.000000  -0.000000  -0.000000  -0.000000   0.000000   0.000000
    27  H   -0.000000  -0.000000   0.000000   0.000000  -0.000000  -0.000000
    28  H    0.000000  -0.000000  -0.000000  -0.000000   0.000000  -0.000000
               7          8          9         10         11         12
     1  C   -0.000000  -0.000066   0.004529   0.006686  -0.000097  -0.000018
     2  N    0.000002   0.009807  -0.031598  -0.084588   0.006358   0.001059
     3  C    0.000537  -0.075203   0.455280   0.021988   0.008176   0.000051
     4  C    0.005368  -0.056413  -0.048749   0.014802  -0.000118   0.000006
     5  C   -0.054553  -0.033886  -0.039881   0.000171   0.000006   0.000000
     6  C    0.253902   0.469717   0.002282   0.007407   0.000173   0.000003
     7  Br  34.978851  -0.055216   0.003917  -0.000146   0.000001  -0.000000
     8  C   -0.055216   5.214500   0.446016  -0.094432  -0.004625  -0.000037
     9  C    0.003917   0.446016   4.989672   0.243149  -0.088440   0.000991
    10  C   -0.000146  -0.094432   0.243149   5.062799   0.460067  -0.046164
    11  N    0.000001  -0.004625  -0.088440   0.460067   7.050634   0.370271
    12  C   -0.000000  -0.000037   0.000991  -0.046164   0.370271   4.779377
    13  C   -0.000000  -0.000003  -0.000570  -0.000215  -0.067802   0.481026
    14  C    0.000000  -0.000000   0.000006  -0.000153   0.005452  -0.009942
    15  C    0.000000   0.000000  -0.000000   0.000109  -0.000061  -0.029228
    16  N   -0.000000  -0.000000   0.000023   0.000468   0.005300  -0.065760
    17  C   -0.000000   0.000009   0.004071  -0.027555  -0.058710   0.376252
    18  N   -0.000000  -0.000075   0.008584  -0.057127  -0.019088  -0.099526
    19  C    0.000002   0.016381  -0.023424   0.282818  -0.095588  -0.009106
    20  H    0.000000  -0.000008  -0.000132  -0.000031   0.000002   0.000000
    21  H    0.000000  -0.000008  -0.000132  -0.000030   0.000002   0.000000
    22  H   -0.000000   0.000008  -0.000041   0.000419  -0.000012   0.000038
    23  H   -0.000125   0.000567   0.004208  -0.000259   0.000001  -0.000000
    24  H   -0.001964   0.005046   0.000616   0.000007  -0.000000   0.000000
    25  H   -0.001684   0.359639  -0.035041  -0.007742   0.003760  -0.000013
    26  H    0.000000   0.000005  -0.000012   0.000610   0.000111  -0.034021
    27  H    0.000000  -0.000000  -0.000000  -0.000001  -0.000082   0.003943
    28  H    0.000000  -0.000000   0.000000   0.000002   0.000009   0.000549
              13         14         15         16         17         18
     1  C    0.000000  -0.000000   0.000000   0.000005   0.000059  -0.006928
     2  N    0.000009   0.000000   0.000000  -0.000047   0.002426  -0.080244
     3  C    0.000006  -0.000000  -0.000000  -0.000001  -0.000245   0.000012
     4  C   -0.000000   0.000000   0.000000  -0.000000  -0.000002  -0.000180
     5  C   -0.000000   0.000000   0.000000   0.000000   0.000000   0.000002
     6  C   -0.000000   0.000000  -0.000000  -0.000000   0.000000  -0.000000
     7  Br  -0.000000   0.000000   0.000000  -0.000000  -0.000000  -0.000000
     8  C   -0.000003  -0.000000   0.000000  -0.000000   0.000009  -0.000075
     9  C   -0.000570   0.000006  -0.000000   0.000023   0.004071   0.008584
    10  C   -0.000215  -0.000153   0.000109   0.000468  -0.027555  -0.057127
    11  N   -0.067802   0.005452  -0.000061   0.005300  -0.058710  -0.019088
    12  C    0.481026  -0.009942  -0.029228  -0.065760   0.376252  -0.099526
    13  C    5.000290   0.532785  -0.031075  -0.040179  -0.063822   0.004018
    14  C    0.532785   4.994749   0.449428  -0.023719  -0.037495   0.000118
    15  C   -0.031075   0.449428   4.790319   0.478647  -0.051172   0.003075
    16  N   -0.040179  -0.023719   0.478647   6.863626   0.386689  -0.086148
    17  C   -0.063822  -0.037495  -0.051172   0.386689   4.705223   0.395024
    18  N    0.004018   0.000118   0.003075  -0.086148   0.395024   7.039868
    19  C    0.002459   0.000032  -0.000012  -0.000775  -0.048881   0.422793
    20  H   -0.000000   0.000000  -0.000000  -0.000000  -0.000000   0.000355
    21  H   -0.000000   0.000000  -0.000000  -0.000000  -0.000000   0.000355
    22  H   -0.000000  -0.000000   0.000001  -0.000034   0.000035   0.016474
    23  H    0.000000  -0.000000   0.000000  -0.000000  -0.000000   0.000001
    24  H   -0.000000   0.000000  -0.000000  -0.000000   0.000000  -0.000000
    25  H   -0.000003   0.000000   0.000000  -0.000000   0.000002   0.000000
    26  H    0.348106  -0.046486   0.004993  -0.000531   0.005836  -0.000134
    27  H   -0.037285   0.352001  -0.035565   0.004425   0.000566   0.000014
    28  H    0.003438  -0.064808   0.378339  -0.053723   0.004590  -0.000095
              19         20         21         22         23         24
     1  C   -0.035426   0.374913   0.374883   0.375648   0.004494  -0.000001
     2  N    0.279356  -0.040810  -0.040813  -0.032790  -0.007784  -0.000091
     3  C   -0.092825  -0.000676  -0.000679   0.001979  -0.033016   0.002753
     4  C    0.002378   0.002544   0.002555   0.000061   0.351852  -0.037433
     5  C   -0.000116  -0.000000  -0.000000   0.000001  -0.038745   0.359172
     6  C   -0.000266  -0.000001  -0.000001  -0.000000   0.003570  -0.038464
     7  Br   0.000002   0.000000   0.000000  -0.000000  -0.000125  -0.001964
     8  C    0.016381  -0.000008  -0.000008   0.000008   0.000567   0.005046
     9  C   -0.023424  -0.000132  -0.000132  -0.000041   0.004208   0.000616
    10  C    0.282818  -0.000031  -0.000030   0.000419  -0.000259   0.000007
    11  N   -0.095588   0.000002   0.000002  -0.000012   0.000001  -0.000000
    12  C   -0.009106   0.000000   0.000000   0.000038  -0.000000   0.000000
    13  C    0.002459  -0.000000  -0.000000  -0.000000   0.000000  -0.000000
    14  C    0.000032   0.000000   0.000000  -0.000000  -0.000000   0.000000
    15  C   -0.000012  -0.000000  -0.000000   0.000001   0.000000  -0.000000
    16  N   -0.000775  -0.000000  -0.000000  -0.000034  -0.000000  -0.000000
    17  C   -0.048881  -0.000000  -0.000000   0.000035  -0.000000   0.000000
    18  N    0.422793   0.000355   0.000355   0.016474   0.000001  -0.000000
    19  C    4.747090   0.000979   0.000981  -0.002377   0.000005   0.000002
    20  H    0.000979   0.555019  -0.041740  -0.023275   0.000647  -0.000000
    21  H    0.000981  -0.041740   0.555022  -0.023242   0.000653  -0.000000
    22  H   -0.002377  -0.023275  -0.023242   0.471740  -0.000048  -0.000000
    23  H    0.000005   0.000647   0.000653  -0.000048   0.571637  -0.004960
    24  H    0.000002  -0.000000  -0.000000  -0.000000  -0.004960   0.556566
    25  H    0.000123  -0.000000  -0.000000  -0.000000   0.000016  -0.000141
    26  H    0.000035  -0.000000  -0.000000   0.000000   0.000000  -0.000000
    27  H   -0.000002   0.000000   0.000000  -0.000000   0.000000  -0.000000
    28  H   -0.000007  -0.000000  -0.000000  -0.000000  -0.000000  -0.000000
              25         26         27         28
     1  C    0.000003   0.000000  -0.000000   0.000000
     2  N   -0.000083  -0.000000  -0.000000  -0.000000
     3  C    0.004466  -0.000000   0.000000  -0.000000
     4  C    0.000087  -0.000000   0.000000  -0.000000
     5  C    0.004875   0.000000  -0.000000   0.000000
     6  C   -0.044394   0.000000  -0.000000  -0.000000
     7  Br  -0.001684   0.000000   0.000000   0.000000
     8  C    0.359639   0.000005  -0.000000  -0.000000
     9  C   -0.035041  -0.000012  -0.000000   0.000000
    10  C   -0.007742   0.000610  -0.000001   0.000002
    11  N    0.003760   0.000111  -0.000082   0.000009
    12  C   -0.000013  -0.034021   0.003943   0.000549
    13  C   -0.000003   0.348106  -0.037285   0.003438
    14  C    0.000000  -0.046486   0.352001  -0.064808
    15  C    0.000000   0.004993  -0.035565   0.378339
    16  N   -0.000000  -0.000531   0.004425  -0.053723
    17  C    0.000002   0.005836   0.000566   0.004590
    18  N    0.000000  -0.000134   0.000014  -0.000095
    19  C    0.000123   0.000035  -0.000002  -0.000007
    20  H   -0.000000  -0.000000   0.000000  -0.000000
    21  H   -0.000000  -0.000000   0.000000  -0.000000
    22  H   -0.000000   0.000000  -0.000000  -0.000000
    23  H    0.000016   0.000000   0.000000  -0.000000
    24  H   -0.000141  -0.000000  -0.000000  -0.000000
    25  H    0.541914   0.000005  -0.000000  -0.000000
    26  H    0.000005   0.569272  -0.005745  -0.000162
    27  H   -0.000000  -0.005745   0.576153  -0.001509
    28  H   -0.000000  -0.000162  -0.001509   0.585840
 Mulliken charges:
               1
     1  C   -0.341490
     2  N   -0.613423
     3  C    0.328945
     4  C   -0.180377
     5  C   -0.155004
     6  C    0.066731
     7  Br  -0.128892
     8  C   -0.201723
     9  C    0.104673
    10  C    0.216940
    11  N   -0.575700
    12  C    0.280250
    13  C   -0.131184
    14  C   -0.151968
    15  C    0.042201
    16  N   -0.468264
    17  C    0.407101
    18  N   -0.541147
    19  C    0.553372
    20  H    0.172215
    21  H    0.172195
    22  H    0.215417
    23  H    0.147286
    24  H    0.158892
    25  H    0.174211
    26  H    0.158117
    27  H    0.143088
    28  H    0.147537
 Sum of Mulliken charges =  -0.00000
 Mulliken charges with hydrogens summed into heavy atoms:
               1
     1  C    0.218337
     2  N   -0.613423
     3  C    0.328945
     4  C   -0.033091
     5  C    0.003888
     6  C    0.066731
     7  Br  -0.128892
     8  C   -0.027512
     9  C    0.104673
    10  C    0.216940
    11  N   -0.575700
    12  C    0.280250
    13  C    0.026933
    14  C   -0.008880
    15  C    0.189738
    16  N   -0.468264
    17  C    0.407101
    18  N   -0.541147
    19  C    0.553372
 Electronic spatial extent (au):  <R**2>=           8103.5726
 Charge=             -0.0000 electrons
 Dipole moment (field-independent basis, Debye):
    X=             -0.2065    Y=              1.2335    Z=              0.0010  Tot=              1.2506
 Quadrupole moment (field-independent basis, Debye-Ang):
   XX=           -122.7912   YY=           -104.3699   ZZ=           -121.6461
   XY=            -16.6541   XZ=              0.0019   YZ=              0.0028
 Traceless Quadrupole moment (field-independent basis, Debye-Ang):
   XX=             -6.5221   YY=             11.8991   ZZ=             -5.3770
   XY=            -16.6541   XZ=              0.0019   YZ=              0.0028
 Octapole moment (field-independent basis, Debye-Ang**2):
  XXX=            -99.6716  YYY=             -2.0179  ZZZ=              0.0039  XYY=            -41.5061
  XXY=            -73.2398  XXZ=              0.0086  XZZ=            -45.2552  YZZ=             -8.2949
  YYZ=              0.0108  XYZ=              0.0032
 Hexadecapole moment (field-independent basis, Debye-Ang**3):
 XXXX=          -7340.1450 YYYY=          -1701.2265 ZZZZ=           -128.9482 XXXY=           -256.2686
 XXXZ=              0.0223 YYYX=            102.7041 YYYZ=              0.0155 ZZZX=             -0.0195
 ZZZY=             -0.0018 XXYY=          -1495.8605 XXZZ=          -1356.9231 YYZZ=           -352.3382
 XXYZ=             -0.0026 YYXZ=              0.0111 ZZXY=             72.0747
 N-N= 1.611189928314D+03 E-N=-1.111409874428D+04  KE= 3.306855303524D+03
 1\1\GINC-CNODE14\SP\RB3LYP TD-FC\6-31G(d)\C14H9Br1N4\JUNHKIM\19-Jan-20
 26\0\\# b3lyp/6-31g* TD=(Nstates=1,50-50) Geom=Check Guess=Read SCF=XQ
 C\\TD-DFT calculation\\0,1\C,0,-1.4719685582,-2.7299395705,0.451787931
 3\N,0,-1.136187766,-1.3352860496,0.2380024752\C,0,-2.0359609676,-0.275
 8433858,0.1199147461\C,0,-3.429478745,-0.2998686824,0.1779554595\C,0,-
 4.1109656781,0.9082190738,0.0298963526\C,0,-3.4106784507,2.1066304126,
 -0.1708273373\Br,0,-4.4031393219,3.7314221134,-0.3669557419\C,0,-2.022
 0112035,2.1440859062,-0.2305948821\C,0,-1.332210735,0.9399050953,-0.08
 34622537\C,0,0.0734159475,0.5937027158,-0.0884589908\N,0,1.1515927218,
 1.3285712779,-0.2370076562\C,0,2.3272932124,0.6349598207,-0.1828503337
 \C,0,3.5502583556,1.3316630388,-0.3315456637\C,0,4.7306183234,0.628682
 0361,-0.2762618861\C,0,4.6738077842,-0.7725595837,-0.0715066767\N,0,3.
 5611452212,-1.4671692167,0.072561339\C,0,2.3840412031,-0.7924306464,0.
 0212466674\N,0,1.2502254329,-1.5362500406,0.173306133\C,0,0.144420906,
 -0.8385113387,0.1158648098\H,0,-2.0157694395,-2.8587827429,1.39456707\
 H,0,-2.0862676481,-3.1123916907,-0.371322568\H,0,-0.5374025461,-3.2912
 190848,0.4951364546\H,0,-3.9780943537,-1.2233018657,0.3330188877\H,0,-
 5.1945094275,0.925210958,0.0698546341\H,0,-1.4886650347,3.0750073463,-
 0.3861047409\H,0,3.5138351893,2.4061650107,-0.4854262879\H,0,5.6913717
 72,1.1223456605,-0.3853183522\H,0,5.601284807,-1.3430155678,-0.0254675
 891\\Version=ES64L-G16RevB.01\State=1-A\HF=-3329.6500382\RMSD=5.594e-0
 9\PG=C01 [X(C14H9Br1N4)]\\@


 SOME THINGS ARE EASY, THEY ARE ONLY HARD TO DO.
            -- A. EINSTEIN TO J. O. HIRSCHFELDER
 THE ONLY TROUBLE WITH A SURE THING IS THE UNCERTAINTY.
     -- FROM A TEABAG (BELONGING TO W.H.?)
 Job cpu time:       0 days  0 hours 29 minutes 57.5 seconds.
 Elapsed time:       0 days  0 hours  1 minutes 52.5 seconds.
 File lengths (MBytes):  RWF=    555 Int=      0 D2E=      0 Chk=     67 Scr=      2
 Normal termination of Gaussian 16 at Mon Jan 19 00:02:34 2026.
