 Entering Gaussian System, Link 0=g16
 Initial command:
 /appl/Gaussian16/AVX_revB01/g16/l1.exe "/home/junhkim/WORK/Review_DD/TADF-Design/data/td_dft/results/mol_332/Gau-2437488.inp" -scrdir="/home/junhkim/WORK/Review_DD/TADF-Design/data/td_dft/results/mol_332/"
 Entering Link 1 = /appl/Gaussian16/AVX_revB01/g16/l1.exe PID=   2437490.
  
 Copyright (c) 1988-2017, Gaussian, Inc.  All Rights Reserved.
  
 This is part of the Gaussian(R) 16 program.  It is based on
 the Gaussian(R) 09 system (copyright 2009, Gaussian, Inc.),
 the Gaussian(R) 03 system (copyright 2003, Gaussian, Inc.),
 the Gaussian(R) 98 system (copyright 1998, Gaussian, Inc.),
 the Gaussian(R) 94 system (copyright 1995, Gaussian, Inc.),
 the Gaussian 92(TM) system (copyright 1992, Gaussian, Inc.),
 the Gaussian 90(TM) system (copyright 1990, Gaussian, Inc.),
 the Gaussian 88(TM) system (copyright 1988, Gaussian, Inc.),
 the Gaussian 86(TM) system (copyright 1986, Carnegie Mellon
 University), and the Gaussian 82(TM) system (copyright 1983,
 Carnegie Mellon University). Gaussian is a federally registered
 trademark of Gaussian, Inc.
  
 This software contains proprietary and confidential information,
 including trade secrets, belonging to Gaussian, Inc.
  
 This software is provided under written license and may be
 used, copied, transmitted, or stored only in accord with that
 written license.
  
 The following legend is applicable only to US Government
 contracts under FAR:
  
                    RESTRICTED RIGHTS LEGEND
  
 Use, reproduction and disclosure by the US Government is
 subject to restrictions as set forth in subparagraphs (a)
 and (c) of the Commercial Computer Software - Restricted
 Rights clause in FAR 52.227-19.
  
 Gaussian, Inc.
 340 Quinnipiac St., Bldg. 40, Wallingford CT 06492
  
  
 ---------------------------------------------------------------
 Warning -- This program may not be used in any manner that
 competes with the business of Gaussian, Inc. or will provide
 assistance to any competitor of Gaussian, Inc.  The licensee
 of this program is prohibited from giving any competitor of
 Gaussian, Inc. access to this program.  By using this program,
 the user acknowledges that Gaussian, Inc. is engaged in the
 business of creating and licensing software in the field of
 computational chemistry and represents and warrants to the
 licensee that it is not a competitor of Gaussian, Inc. and that
 it will not use this program in any manner prohibited above.
 ---------------------------------------------------------------
  

 Cite this work as:
 Gaussian 16, Revision B.01,
 M. J. Frisch, G. W. Trucks, H. B. Schlegel, G. E. Scuseria, 
 M. A. Robb, J. R. Cheeseman, G. Scalmani, V. Barone, 
 G. A. Petersson, H. Nakatsuji, X. Li, M. Caricato, A. V. Marenich, 
 J. Bloino, B. G. Janesko, R. Gomperts, B. Mennucci, H. P. Hratchian, 
 J. V. Ortiz, A. F. Izmaylov, J. L. Sonnenberg, D. Williams-Young, 
 F. Ding, F. Lipparini, F. Egidi, J. Goings, B. Peng, A. Petrone, 
 T. Henderson, D. Ranasinghe, V. G. Zakrzewski, J. Gao, N. Rega, 
 G. Zheng, W. Liang, M. Hada, M. Ehara, K. Toyota, R. Fukuda, 
 J. Hasegawa, M. Ishida, T. Nakajima, Y. Honda, O. Kitao, H. Nakai, 
 T. Vreven, K. Throssell, J. A. Montgomery, Jr., J. E. Peralta, 
 F. Ogliaro, M. J. Bearpark, J. J. Heyd, E. N. Brothers, K. N. Kudin, 
 V. N. Staroverov, T. A. Keith, R. Kobayashi, J. Normand, 
 K. Raghavachari, A. P. Rendell, J. C. Burant, S. S. Iyengar, 
 J. Tomasi, M. Cossi, J. M. Millam, M. Klene, C. Adamo, R. Cammi, 
 J. W. Ochterski, R. L. Martin, K. Morokuma, O. Farkas, 
 J. B. Foresman, and D. J. Fox, Gaussian, Inc., Wallingford CT, 2016.
 
 ******************************************
 Gaussian 16:  ES64L-G16RevB.01 20-Dec-2017
                19-Jan-2026 
 ******************************************
 %mem=60GB
 %chk=opt.chk
 %nprocshared=16
 Will use up to   16 processors via shared memory.
 ---------------------------
 #P b3lyp/6-31g* opt SCF=XQC
 ---------------------------
 1/18=20,19=15,26=3,38=1/1,3;
 2/9=110,12=2,17=6,18=5,40=1/2;
 3/5=1,6=6,7=1,11=2,25=1,30=1,71=1,74=-5/1,2,3;
 4//1;
 5/5=2,8=3,13=1,38=5/2,8;
 6/7=2,8=2,9=2,10=2,28=1/1;
 7//1,2,3,16;
 1/18=20,19=15,26=3/3(2);
 2/9=110/2;
 99//99;
 2/9=110/2;
 3/5=1,6=6,7=1,11=2,25=1,30=1,71=1,74=-5/1,2,3;
 4/5=5,16=3,69=1/1;
 5/5=2,8=3,13=1,38=5/2,8;
 7//1,2,3,16;
 1/18=20,19=15,26=3/3(-5);
 2/9=110/2;
 6/7=2,8=2,9=2,10=2,19=2,28=1/1;
 99/9=1/99;
 Leave Link    1 at Mon Jan 19 14:10:53 2026, MaxMem=  8053063680 cpu:               1.1 elap:               0.1
 (Enter /appl/Gaussian16/AVX_revB01/g16/l101.exe)
 ------------------------------
 Gaussian input prepared by ASE
 ------------------------------
 Symbolic Z-matrix:
 Charge =  0 Multiplicity = 1
 O                    -5.35629  -0.59738   1.69287 
 C                    -4.33225  -0.39141   1.06567 
 C                    -3.7518    0.94668   0.88279 
 C                    -4.53115   2.07009   1.1648 
 C                    -4.06627   3.33694   0.89571 
 C                    -2.82042   3.49111   0.29775 
 C                    -2.02725   2.3959    0.0289 
 C                    -2.46086   1.10878   0.35859 
 N                    -1.66885  -0.00992   0.10896 
 C                    -0.27749   0.04843   0.06193 
 C                     0.4401    1.00898   0.77969 
 C                     1.81429   1.05655   0.70926 
 C                     2.53564   0.15204  -0.07693 
 C                     3.99928   0.23166  -0.17744 
 C                     4.63315  -0.00257  -1.39594 
 C                     6.00937   0.07468  -1.4979 
 C                     6.77446   0.38017  -0.38454 
 C                     6.15461   0.60937   0.83237 
 C                     4.77783   0.53915   0.93595 
 C                     1.82815  -0.83959  -0.73595 
 C                     0.43944  -0.91827  -0.65846 
 C                    -0.24519  -2.06549  -1.27232 
 O                     0.28961  -2.81714  -2.06814 
 C                    -1.61639  -2.25804  -0.77786 
 C                    -2.25959  -3.47391  -0.99401 
 C                    -3.54324  -3.69374  -0.5314 
 C                    -4.20117  -2.68395   0.1449 
 C                    -3.59624  -1.44748   0.35514 
 C                    -2.28593  -1.22313  -0.10174 
 H                    -5.5123    1.90243   1.58284 
 H                    -4.67188   4.20164   1.11791 
 H                    -2.46911   4.47604   0.02904 
 H                    -1.07986   2.53112  -0.46993 
 H                    -0.0837    1.70228   1.4199 
 H                     2.34214   1.81598   1.26643 
 H                     4.03946  -0.22776  -2.26959 
 H                     6.48764  -0.10366  -2.44979 
 H                     7.8498    0.43784  -0.46441 
 H                     6.74695   0.8417    1.70538 
 H                     4.30333   0.69943   1.89324 
 H                     2.33641  -1.60626  -1.30163 
 H                    -1.7161   -4.23538  -1.53346 
 H                    -4.02674  -4.64387  -0.69664 
 H                    -5.2016   -2.82006   0.52807 
 
 ITRead=  0  0  0  0  0  0  0  0  0  0  0  0  0  0  0  0  0  0  0  0
 ITRead=  0  0  0  0  0  0  0  0  0  0  0  0  0  0  0  0  0  0  0  0
 ITRead=  0  0  0  0
 MicOpt= -1 -1 -1 -1 -1 -1 -1 -1 -1 -1 -1 -1 -1 -1 -1 -1 -1 -1 -1 -1
 MicOpt= -1 -1 -1 -1 -1 -1 -1 -1 -1 -1 -1 -1 -1 -1 -1 -1 -1 -1 -1 -1
 MicOpt= -1 -1 -1 -1
 NAtoms=     44 NQM=       44 NQMF=       0 NMMI=      0 NMMIF=      0
                NMic=       0 NMicF=      0.
                    Isotopes and Nuclear Properties:
 (Nuclear quadrupole moments (NQMom) in fm**2, nuclear magnetic moments (NMagM)
  in nuclear magnetons)

  Atom         1           2           3           4           5           6           7           8           9          10
 IAtWgt=          16          12          12          12          12          12          12          12          14          12
 AtmWgt=  15.9949146  12.0000000  12.0000000  12.0000000  12.0000000  12.0000000  12.0000000  12.0000000  14.0030740  12.0000000
 NucSpn=           0           0           0           0           0           0           0           0           2           0
 AtZEff=  -0.0000000  -0.0000000  -0.0000000  -0.0000000  -0.0000000  -0.0000000  -0.0000000  -0.0000000  -0.0000000  -0.0000000
 NQMom=    0.0000000   0.0000000   0.0000000   0.0000000   0.0000000   0.0000000   0.0000000   0.0000000   2.0440000   0.0000000
 NMagM=    0.0000000   0.0000000   0.0000000   0.0000000   0.0000000   0.0000000   0.0000000   0.0000000   0.4037610   0.0000000
 AtZNuc=   8.0000000   6.0000000   6.0000000   6.0000000   6.0000000   6.0000000   6.0000000   6.0000000   7.0000000   6.0000000

  Atom        11          12          13          14          15          16          17          18          19          20
 IAtWgt=          12          12          12          12          12          12          12          12          12          12
 AtmWgt=  12.0000000  12.0000000  12.0000000  12.0000000  12.0000000  12.0000000  12.0000000  12.0000000  12.0000000  12.0000000
 NucSpn=           0           0           0           0           0           0           0           0           0           0
 AtZEff=  -0.0000000  -0.0000000  -0.0000000  -0.0000000  -0.0000000  -0.0000000  -0.0000000  -0.0000000  -0.0000000  -0.0000000
 NQMom=    0.0000000   0.0000000   0.0000000   0.0000000   0.0000000   0.0000000   0.0000000   0.0000000   0.0000000   0.0000000
 NMagM=    0.0000000   0.0000000   0.0000000   0.0000000   0.0000000   0.0000000   0.0000000   0.0000000   0.0000000   0.0000000
 AtZNuc=   6.0000000   6.0000000   6.0000000   6.0000000   6.0000000   6.0000000   6.0000000   6.0000000   6.0000000   6.0000000

  Atom        21          22          23          24          25          26          27          28          29          30
 IAtWgt=          12          12          16          12          12          12          12          12          12           1
 AtmWgt=  12.0000000  12.0000000  15.9949146  12.0000000  12.0000000  12.0000000  12.0000000  12.0000000  12.0000000   1.0078250
 NucSpn=           0           0           0           0           0           0           0           0           0           1
 AtZEff=  -0.0000000  -0.0000000  -0.0000000  -0.0000000  -0.0000000  -0.0000000  -0.0000000  -0.0000000  -0.0000000  -0.0000000
 NQMom=    0.0000000   0.0000000   0.0000000   0.0000000   0.0000000   0.0000000   0.0000000   0.0000000   0.0000000   0.0000000
 NMagM=    0.0000000   0.0000000   0.0000000   0.0000000   0.0000000   0.0000000   0.0000000   0.0000000   0.0000000   2.7928460
 AtZNuc=   6.0000000   6.0000000   8.0000000   6.0000000   6.0000000   6.0000000   6.0000000   6.0000000   6.0000000   1.0000000

  Atom        31          32          33          34          35          36          37          38          39          40
 IAtWgt=           1           1           1           1           1           1           1           1           1           1
 AtmWgt=   1.0078250   1.0078250   1.0078250   1.0078250   1.0078250   1.0078250   1.0078250   1.0078250   1.0078250   1.0078250
 NucSpn=           1           1           1           1           1           1           1           1           1           1
 AtZEff=  -0.0000000  -0.0000000  -0.0000000  -0.0000000  -0.0000000  -0.0000000  -0.0000000  -0.0000000  -0.0000000  -0.0000000
 NQMom=    0.0000000   0.0000000   0.0000000   0.0000000   0.0000000   0.0000000   0.0000000   0.0000000   0.0000000   0.0000000
 NMagM=    2.7928460   2.7928460   2.7928460   2.7928460   2.7928460   2.7928460   2.7928460   2.7928460   2.7928460   2.7928460
 AtZNuc=   1.0000000   1.0000000   1.0000000   1.0000000   1.0000000   1.0000000   1.0000000   1.0000000   1.0000000   1.0000000

  Atom        41          42          43          44
 IAtWgt=           1           1           1           1
 AtmWgt=   1.0078250   1.0078250   1.0078250   1.0078250
 NucSpn=           1           1           1           1
 AtZEff=  -0.0000000  -0.0000000  -0.0000000  -0.0000000
 NQMom=    0.0000000   0.0000000   0.0000000   0.0000000
 NMagM=    2.7928460   2.7928460   2.7928460   2.7928460
 AtZNuc=   1.0000000   1.0000000   1.0000000   1.0000000
 Leave Link  101 at Mon Jan 19 14:10:54 2026, MaxMem=  8053063680 cpu:              10.3 elap:               0.7
 (Enter /appl/Gaussian16/AVX_revB01/g16/l103.exe)

 GradGradGradGradGradGradGradGradGradGradGradGradGradGradGradGradGradGrad
 Berny optimization.
 Initialization pass.
                           ----------------------------
                           !    Initial Parameters    !
                           ! (Angstroms and Degrees)  !
 --------------------------                            --------------------------
 ! Name  Definition              Value          Derivative Info.                !
 --------------------------------------------------------------------------------
 ! R1    R(1,2)                  1.2184         estimate D2E/DX2                !
 ! R2    R(2,3)                  1.47           estimate D2E/DX2                !
 ! R3    R(2,28)                 1.4703         estimate D2E/DX2                !
 ! R4    R(3,4)                  1.3961         estimate D2E/DX2                !
 ! R5    R(3,8)                  1.4027         estimate D2E/DX2                !
 ! R6    R(4,5)                  1.376          estimate D2E/DX2                !
 ! R7    R(4,30)                 1.0796         estimate D2E/DX2                !
 ! R8    R(5,6)                  1.3905         estimate D2E/DX2                !
 ! R9    R(5,31)                 1.0788         estimate D2E/DX2                !
 ! R10   R(6,7)                  1.3787         estimate D2E/DX2                !
 ! R11   R(6,32)                 1.0797         estimate D2E/DX2                !
 ! R12   R(7,8)                  1.3976         estimate D2E/DX2                !
 ! R13   R(7,33)                 1.0792         estimate D2E/DX2                !
 ! R14   R(8,9)                  1.3932         estimate D2E/DX2                !
 ! R15   R(9,10)                 1.3934         estimate D2E/DX2                !
 ! R16   R(9,29)                 1.3773         estimate D2E/DX2                !
 ! R17   R(10,11)                1.3974         estimate D2E/DX2                !
 ! R18   R(10,21)                1.4027         estimate D2E/DX2                !
 ! R19   R(11,12)                1.3768         estimate D2E/DX2                !
 ! R20   R(11,34)                1.0793         estimate D2E/DX2                !
 ! R21   R(12,13)                1.3988         estimate D2E/DX2                !
 ! R22   R(12,35)                1.0797         estimate D2E/DX2                !
 ! R23   R(13,14)                1.4693         estimate D2E/DX2                !
 ! R24   R(13,20)                1.385          estimate D2E/DX2                !
 ! R25   R(14,15)                1.3933         estimate D2E/DX2                !
 ! R26   R(14,19)                1.393          estimate D2E/DX2                !
 ! R27   R(15,16)                1.3822         estimate D2E/DX2                !
 ! R28   R(15,36)                1.08           estimate D2E/DX2                !
 ! R29   R(16,17)                1.385          estimate D2E/DX2                !
 ! R30   R(16,37)                1.0801         estimate D2E/DX2                !
 ! R31   R(17,18)                1.3848         estimate D2E/DX2                !
 ! R32   R(17,38)                1.0798         estimate D2E/DX2                !
 ! R33   R(18,19)                1.3825         estimate D2E/DX2                !
 ! R34   R(18,39)                1.0803         estimate D2E/DX2                !
 ! R35   R(19,40)                1.0804         estimate D2E/DX2                !
 ! R36   R(20,21)                1.3931         estimate D2E/DX2                !
 ! R37   R(20,41)                1.0799         estimate D2E/DX2                !
 ! R38   R(21,22)                1.4703         estimate D2E/DX2                !
 ! R39   R(22,23)                1.2183         estimate D2E/DX2                !
 ! R40   R(22,24)                1.4703         estimate D2E/DX2                !
 ! R41   R(24,25)                1.3924         estimate D2E/DX2                !
 ! R42   R(24,29)                1.4059         estimate D2E/DX2                !
 ! R43   R(25,26)                1.3821         estimate D2E/DX2                !
 ! R44   R(25,42)                1.0799         estimate D2E/DX2                !
 ! R45   R(26,27)                1.382          estimate D2E/DX2                !
 ! R46   R(26,43)                1.0788         estimate D2E/DX2                !
 ! R47   R(27,28)                1.3925         estimate D2E/DX2                !
 ! R48   R(27,44)                1.0799         estimate D2E/DX2                !
 ! R49   R(28,29)                1.4057         estimate D2E/DX2                !
 ! A1    A(1,2,3)              123.3538         estimate D2E/DX2                !
 ! A2    A(1,2,28)             123.2349         estimate D2E/DX2                !
 ! A3    A(3,2,28)             113.3304         estimate D2E/DX2                !
 ! A4    A(2,3,4)              119.1393         estimate D2E/DX2                !
 ! A5    A(2,3,8)              121.0032         estimate D2E/DX2                !
 ! A6    A(4,3,8)              119.7538         estimate D2E/DX2                !
 ! A7    A(3,4,5)              120.8468         estimate D2E/DX2                !
 ! A8    A(3,4,30)             117.4258         estimate D2E/DX2                !
 ! A9    A(5,4,30)             121.7185         estimate D2E/DX2                !
 ! A10   A(4,5,6)              119.2672         estimate D2E/DX2                !
 ! A11   A(4,5,31)             120.5307         estimate D2E/DX2                !
 ! A12   A(6,5,31)             120.1769         estimate D2E/DX2                !
 ! A13   A(5,6,7)              120.7462         estimate D2E/DX2                !
 ! A14   A(5,6,32)             119.9809         estimate D2E/DX2                !
 ! A15   A(7,6,32)             119.2696         estimate D2E/DX2                !
 ! A16   A(6,7,8)              120.4682         estimate D2E/DX2                !
 ! A17   A(6,7,33)             119.712          estimate D2E/DX2                !
 ! A18   A(8,7,33)             119.7871         estimate D2E/DX2                !
 ! A19   A(3,8,7)              118.6922         estimate D2E/DX2                !
 ! A20   A(3,8,9)              119.8246         estimate D2E/DX2                !
 ! A21   A(7,8,9)              121.3877         estimate D2E/DX2                !
 ! A22   A(8,9,10)             122.6886         estimate D2E/DX2                !
 ! A23   A(8,9,29)             118.6847         estimate D2E/DX2                !
 ! A24   A(10,9,29)            118.6267         estimate D2E/DX2                !
 ! A25   A(9,10,11)            121.6153         estimate D2E/DX2                !
 ! A26   A(9,10,21)            119.9242         estimate D2E/DX2                !
 ! A27   A(11,10,21)           118.3637         estimate D2E/DX2                !
 ! A28   A(10,11,12)           120.6639         estimate D2E/DX2                !
 ! A29   A(10,11,34)           119.8025         estimate D2E/DX2                !
 ! A30   A(12,11,34)           119.5071         estimate D2E/DX2                !
 ! A31   A(11,12,13)           121.408          estimate D2E/DX2                !
 ! A32   A(11,12,35)           119.0676         estimate D2E/DX2                !
 ! A33   A(13,12,35)           119.5215         estimate D2E/DX2                !
 ! A34   A(12,13,14)           121.1409         estimate D2E/DX2                !
 ! A35   A(12,13,20)           117.8398         estimate D2E/DX2                !
 ! A36   A(14,13,20)           121.0055         estimate D2E/DX2                !
 ! A37   A(13,14,15)           120.2588         estimate D2E/DX2                !
 ! A38   A(13,14,19)           120.9351         estimate D2E/DX2                !
 ! A39   A(15,14,19)           118.8061         estimate D2E/DX2                !
 ! A40   A(14,15,16)           120.5367         estimate D2E/DX2                !
 ! A41   A(14,15,36)           119.4981         estimate D2E/DX2                !
 ! A42   A(16,15,36)           119.9552         estimate D2E/DX2                !
 ! A43   A(15,16,17)           120.2027         estimate D2E/DX2                !
 ! A44   A(15,16,37)           119.7808         estimate D2E/DX2                !
 ! A45   A(17,16,37)           120.0164         estimate D2E/DX2                !
 ! A46   A(16,17,18)           119.7133         estimate D2E/DX2                !
 ! A47   A(16,17,38)           120.1608         estimate D2E/DX2                !
 ! A48   A(18,17,38)           120.1258         estimate D2E/DX2                !
 ! A49   A(17,18,19)           120.2129         estimate D2E/DX2                !
 ! A50   A(17,18,39)           120.022          estimate D2E/DX2                !
 ! A51   A(19,18,39)           119.765          estimate D2E/DX2                !
 ! A52   A(14,19,18)           120.5271         estimate D2E/DX2                !
 ! A53   A(14,19,40)           119.7026         estimate D2E/DX2                !
 ! A54   A(18,19,40)           119.7522         estimate D2E/DX2                !
 ! A55   A(13,20,21)           121.5467         estimate D2E/DX2                !
 ! A56   A(13,20,41)           121.1427         estimate D2E/DX2                !
 ! A57   A(21,20,41)           117.272          estimate D2E/DX2                !
 ! A58   A(10,21,20)           119.9437         estimate D2E/DX2                !
 ! A59   A(10,21,22)           120.9432         estimate D2E/DX2                !
 ! A60   A(20,21,22)           119.0153         estimate D2E/DX2                !
 ! A61   A(21,22,23)           123.3478         estimate D2E/DX2                !
 ! A62   A(21,22,24)           113.3314         estimate D2E/DX2                !
 ! A63   A(23,22,24)           123.2474         estimate D2E/DX2                !
 ! A64   A(22,24,25)           119.5353         estimate D2E/DX2                !
 ! A65   A(22,24,29)           120.6296         estimate D2E/DX2                !
 ! A66   A(25,24,29)           119.8323         estimate D2E/DX2                !
 ! A67   A(24,25,26)           121.0633         estimate D2E/DX2                !
 ! A68   A(24,25,42)           117.4379         estimate D2E/DX2                !
 ! A69   A(26,25,42)           121.4987         estimate D2E/DX2                !
 ! A70   A(25,26,27)           119.324          estimate D2E/DX2                !
 ! A71   A(25,26,43)           120.3375         estimate D2E/DX2                !
 ! A72   A(27,26,43)           120.3385         estimate D2E/DX2                !
 ! A73   A(26,27,28)           121.0562         estimate D2E/DX2                !
 ! A74   A(26,27,44)           121.505          estimate D2E/DX2                !
 ! A75   A(28,27,44)           117.4387         estimate D2E/DX2                !
 ! A76   A(2,28,27)            119.5567         estimate D2E/DX2                !
 ! A77   A(2,28,29)            120.6001         estimate D2E/DX2                !
 ! A78   A(27,28,29)           119.8408         estimate D2E/DX2                !
 ! A79   A(9,29,24)            120.5713         estimate D2E/DX2                !
 ! A80   A(9,29,28)            120.5629         estimate D2E/DX2                !
 ! A81   A(24,29,28)           118.8659         estimate D2E/DX2                !
 ! D1    D(1,2,3,4)            -14.9498         estimate D2E/DX2                !
 ! D2    D(1,2,3,8)            168.7627         estimate D2E/DX2                !
 ! D3    D(28,2,3,4)           161.8712         estimate D2E/DX2                !
 ! D4    D(28,2,3,8)           -14.4163         estimate D2E/DX2                !
 ! D5    D(1,2,28,27)           13.3662         estimate D2E/DX2                !
 ! D6    D(1,2,28,29)         -166.0645         estimate D2E/DX2                !
 ! D7    D(3,2,28,27)         -163.4591         estimate D2E/DX2                !
 ! D8    D(3,2,28,29)           17.1102         estimate D2E/DX2                !
 ! D9    D(2,3,4,5)           -174.2549         estimate D2E/DX2                !
 ! D10   D(2,3,4,30)             4.6841         estimate D2E/DX2                !
 ! D11   D(8,3,4,5)              2.0798         estimate D2E/DX2                !
 ! D12   D(8,3,4,30)          -178.9812         estimate D2E/DX2                !
 ! D13   D(2,3,8,7)            171.1077         estimate D2E/DX2                !
 ! D14   D(2,3,8,9)             -5.3885         estimate D2E/DX2                !
 ! D15   D(4,3,8,7)             -5.1572         estimate D2E/DX2                !
 ! D16   D(4,3,8,9)            178.3465         estimate D2E/DX2                !
 ! D17   D(3,4,5,6)              1.9712         estimate D2E/DX2                !
 ! D18   D(3,4,5,31)          -179.8518         estimate D2E/DX2                !
 ! D19   D(30,4,5,6)          -176.9217         estimate D2E/DX2                !
 ! D20   D(30,4,5,31)            1.2553         estimate D2E/DX2                !
 ! D21   D(4,5,6,7)             -2.9027         estimate D2E/DX2                !
 ! D22   D(4,5,6,32)           176.4414         estimate D2E/DX2                !
 ! D23   D(31,5,6,7)           178.9138         estimate D2E/DX2                !
 ! D24   D(31,5,6,32)           -1.7422         estimate D2E/DX2                !
 ! D25   D(5,6,7,8)             -0.2564         estimate D2E/DX2                !
 ! D26   D(5,6,7,33)           177.6585         estimate D2E/DX2                !
 ! D27   D(32,6,7,8)          -179.605          estimate D2E/DX2                !
 ! D28   D(32,6,7,33)           -1.6902         estimate D2E/DX2                !
 ! D29   D(6,7,8,3)              4.2721         estimate D2E/DX2                !
 ! D30   D(6,7,8,9)           -179.2887         estimate D2E/DX2                !
 ! D31   D(33,7,8,3)          -173.6412         estimate D2E/DX2                !
 ! D32   D(33,7,8,9)             2.798          estimate D2E/DX2                !
 ! D33   D(3,8,9,10)          -156.1573         estimate D2E/DX2                !
 ! D34   D(3,8,9,29)            23.9283         estimate D2E/DX2                !
 ! D35   D(7,8,9,10)            27.4432         estimate D2E/DX2                !
 ! D36   D(7,8,9,29)          -152.4712         estimate D2E/DX2                !
 ! D37   D(8,9,10,11)           27.5981         estimate D2E/DX2                !
 ! D38   D(8,9,10,21)         -156.0373         estimate D2E/DX2                !
 ! D39   D(29,9,10,11)        -152.4874         estimate D2E/DX2                !
 ! D40   D(29,9,10,21)          23.8772         estimate D2E/DX2                !
 ! D41   D(8,9,29,24)          158.7265         estimate D2E/DX2                !
 ! D42   D(8,9,29,28)          -21.2474         estimate D2E/DX2                !
 ! D43   D(10,9,29,24)         -21.1915         estimate D2E/DX2                !
 ! D44   D(10,9,29,28)         158.8347         estimate D2E/DX2                !
 ! D45   D(9,10,11,12)        -179.3967         estimate D2E/DX2                !
 ! D46   D(9,10,11,34)           2.4893         estimate D2E/DX2                !
 ! D47   D(21,10,11,12)          4.1838         estimate D2E/DX2                !
 ! D48   D(21,10,11,34)       -173.9302         estimate D2E/DX2                !
 ! D49   D(9,10,21,20)         178.2575         estimate D2E/DX2                !
 ! D50   D(9,10,21,22)          -5.372          estimate D2E/DX2                !
 ! D51   D(11,10,21,20)         -5.2606         estimate D2E/DX2                !
 ! D52   D(11,10,21,22)        171.1099         estimate D2E/DX2                !
 ! D53   D(10,11,12,13)         -0.0114         estimate D2E/DX2                !
 ! D54   D(10,11,12,35)        179.3668         estimate D2E/DX2                !
 ! D55   D(34,11,12,13)        178.1082         estimate D2E/DX2                !
 ! D56   D(34,11,12,35)         -2.5136         estimate D2E/DX2                !
 ! D57   D(11,12,13,14)        178.2711         estimate D2E/DX2                !
 ! D58   D(11,12,13,20)         -3.0656         estimate D2E/DX2                !
 ! D59   D(35,12,13,14)         -1.1043         estimate D2E/DX2                !
 ! D60   D(35,12,13,20)        177.5589         estimate D2E/DX2                !
 ! D61   D(12,13,14,15)       -140.9641         estimate D2E/DX2                !
 ! D62   D(12,13,14,19)         39.1154         estimate D2E/DX2                !
 ! D63   D(20,13,14,15)         40.415          estimate D2E/DX2                !
 ! D64   D(20,13,14,19)       -139.5055         estimate D2E/DX2                !
 ! D65   D(12,13,20,21)          1.9349         estimate D2E/DX2                !
 ! D66   D(12,13,20,41)       -175.7426         estimate D2E/DX2                !
 ! D67   D(14,13,20,21)       -179.4            estimate D2E/DX2                !
 ! D68   D(14,13,20,41)          2.9225         estimate D2E/DX2                !
 ! D69   D(13,14,15,16)        179.8082         estimate D2E/DX2                !
 ! D70   D(13,14,15,36)          0.9617         estimate D2E/DX2                !
 ! D71   D(19,14,15,16)         -0.2697         estimate D2E/DX2                !
 ! D72   D(19,14,15,36)       -179.1161         estimate D2E/DX2                !
 ! D73   D(13,14,19,18)        179.8776         estimate D2E/DX2                !
 ! D74   D(13,14,19,40)          1.4276         estimate D2E/DX2                !
 ! D75   D(15,14,19,18)         -0.044          estimate D2E/DX2                !
 ! D76   D(15,14,19,40)       -178.494          estimate D2E/DX2                !
 ! D77   D(14,15,16,17)          0.3221         estimate D2E/DX2                !
 ! D78   D(14,15,16,37)       -179.6506         estimate D2E/DX2                !
 ! D79   D(36,15,16,17)        179.1633         estimate D2E/DX2                !
 ! D80   D(36,15,16,37)         -0.8094         estimate D2E/DX2                !
 ! D81   D(15,16,17,18)         -0.0577         estimate D2E/DX2                !
 ! D82   D(15,16,17,38)        179.8422         estimate D2E/DX2                !
 ! D83   D(37,16,17,18)        179.9149         estimate D2E/DX2                !
 ! D84   D(37,16,17,38)         -0.1852         estimate D2E/DX2                !
 ! D85   D(16,17,18,19)         -0.2553         estimate D2E/DX2                !
 ! D86   D(16,17,18,39)        179.6025         estimate D2E/DX2                !
 ! D87   D(38,17,18,19)        179.8448         estimate D2E/DX2                !
 ! D88   D(38,17,18,39)         -0.2974         estimate D2E/DX2                !
 ! D89   D(17,18,19,14)          0.3064         estimate D2E/DX2                !
 ! D90   D(17,18,19,40)        178.7557         estimate D2E/DX2                !
 ! D91   D(39,18,19,14)       -179.5517         estimate D2E/DX2                !
 ! D92   D(39,18,19,40)         -1.1024         estimate D2E/DX2                !
 ! D93   D(13,20,21,10)          2.2376         estimate D2E/DX2                !
 ! D94   D(13,20,21,22)       -174.2028         estimate D2E/DX2                !
 ! D95   D(41,20,21,10)       -179.9988         estimate D2E/DX2                !
 ! D96   D(41,20,21,22)          3.5609         estimate D2E/DX2                !
 ! D97   D(10,21,22,23)        168.6229         estimate D2E/DX2                !
 ! D98   D(10,21,22,24)        -14.4061         estimate D2E/DX2                !
 ! D99   D(20,21,22,23)        -14.9735         estimate D2E/DX2                !
 ! D100  D(20,21,22,24)        161.9976         estimate D2E/DX2                !
 ! D101  D(21,22,24,25)       -163.5084         estimate D2E/DX2                !
 ! D102  D(21,22,24,29)         17.0971         estimate D2E/DX2                !
 ! D103  D(23,22,24,25)         13.4661         estimate D2E/DX2                !
 ! D104  D(23,22,24,29)       -165.9283         estimate D2E/DX2                !
 ! D105  D(22,24,25,26)        179.3512         estimate D2E/DX2                !
 ! D106  D(22,24,25,42)         -0.515          estimate D2E/DX2                !
 ! D107  D(29,24,25,26)         -1.2495         estimate D2E/DX2                !
 ! D108  D(29,24,25,42)        178.8843         estimate D2E/DX2                !
 ! D109  D(22,24,29,9)           0.0227         estimate D2E/DX2                !
 ! D110  D(22,24,29,28)        179.997          estimate D2E/DX2                !
 ! D111  D(25,24,29,9)        -179.37           estimate D2E/DX2                !
 ! D112  D(25,24,29,28)          0.6043         estimate D2E/DX2                !
 ! D113  D(24,25,26,27)          0.6361         estimate D2E/DX2                !
 ! D114  D(24,25,26,43)       -179.3707         estimate D2E/DX2                !
 ! D115  D(42,25,26,27)       -179.5032         estimate D2E/DX2                !
 ! D116  D(42,25,26,43)          0.49           estimate D2E/DX2                !
 ! D117  D(25,26,27,28)          0.6239         estimate D2E/DX2                !
 ! D118  D(25,26,27,44)       -179.5232         estimate D2E/DX2                !
 ! D119  D(43,26,27,28)       -179.3693         estimate D2E/DX2                !
 ! D120  D(43,26,27,44)          0.4836         estimate D2E/DX2                !
 ! D121  D(26,27,28,2)         179.3127         estimate D2E/DX2                !
 ! D122  D(26,27,28,29)         -1.2523         estimate D2E/DX2                !
 ! D123  D(44,27,28,2)          -0.546          estimate D2E/DX2                !
 ! D124  D(44,27,28,29)        178.889          estimate D2E/DX2                !
 ! D125  D(2,28,29,9)            0.0252         estimate D2E/DX2                !
 ! D126  D(2,28,29,24)        -179.9491         estimate D2E/DX2                !
 ! D127  D(27,28,29,9)        -179.4038         estimate D2E/DX2                !
 ! D128  D(27,28,29,24)          0.6219         estimate D2E/DX2                !
 --------------------------------------------------------------------------------
 Trust Radius=3.00D-01 FncErr=1.00D-07 GrdErr=1.00D-06 EigMax=2.50D+02 EigMin=1.00D-04
 Number of steps in this run=    264 maximum allowed number of steps=    264.
 GradGradGradGradGradGradGradGradGradGradGradGradGradGradGradGradGradGrad

 Leave Link  103 at Mon Jan 19 14:10:54 2026, MaxMem=  8053063680 cpu:               0.2 elap:               0.0
 (Enter /appl/Gaussian16/AVX_revB01/g16/l202.exe)
                          Input orientation:                          
 ---------------------------------------------------------------------
 Center     Atomic      Atomic             Coordinates (Angstroms)
 Number     Number       Type             X           Y           Z
 ---------------------------------------------------------------------
      1          8           0       -5.356286   -0.597381    1.692871
      2          6           0       -4.332246   -0.391411    1.065673
      3          6           0       -3.751799    0.946685    0.882791
      4          6           0       -4.531154    2.070094    1.164805
      5          6           0       -4.066267    3.336936    0.895707
      6          6           0       -2.820424    3.491106    0.297752
      7          6           0       -2.027246    2.395902    0.028899
      8          6           0       -2.460862    1.108780    0.358589
      9          7           0       -1.668849   -0.009922    0.108956
     10          6           0       -0.277486    0.048426    0.061931
     11          6           0        0.440096    1.008978    0.779692
     12          6           0        1.814290    1.056550    0.709255
     13          6           0        2.535636    0.152044   -0.076928
     14          6           0        3.999284    0.231658   -0.177440
     15          6           0        4.633148   -0.002572   -1.395942
     16          6           0        6.009368    0.074679   -1.497905
     17          6           0        6.774457    0.380168   -0.384542
     18          6           0        6.154612    0.609372    0.832366
     19          6           0        4.777835    0.539152    0.935952
     20          6           0        1.828154   -0.839586   -0.735948
     21          6           0        0.439445   -0.918275   -0.658464
     22          6           0       -0.245190   -2.065490   -1.272320
     23          8           0        0.289606   -2.817138   -2.068136
     24          6           0       -1.616386   -2.258039   -0.777862
     25          6           0       -2.259589   -3.473909   -0.994007
     26          6           0       -3.543241   -3.693744   -0.531402
     27          6           0       -4.201171   -2.683949    0.144900
     28          6           0       -3.596238   -1.447480    0.355144
     29          6           0       -2.285933   -1.223131   -0.101745
     30          1           0       -5.512303    1.902433    1.582840
     31          1           0       -4.671880    4.201644    1.117906
     32          1           0       -2.469108    4.476042    0.029037
     33          1           0       -1.079856    2.531119   -0.469935
     34          1           0       -0.083697    1.702285    1.419903
     35          1           0        2.342138    1.815982    1.266435
     36          1           0        4.039458   -0.227763   -2.269591
     37          1           0        6.487641   -0.103655   -2.449794
     38          1           0        7.849798    0.437843   -0.464407
     39          1           0        6.746954    0.841701    1.705379
     40          1           0        4.303328    0.699432    1.893243
     41          1           0        2.336405   -1.606259   -1.301630
     42          1           0       -1.716100   -4.235379   -1.533461
     43          1           0       -4.026744   -4.643866   -0.696644
     44          1           0       -5.201596   -2.820058    0.528071
 ---------------------------------------------------------------------
                    Distance matrix (angstroms):
                    1          2          3          4          5
     1  O    0.000000
     2  C    1.218384   0.000000
     3  C    2.369546   1.469988   0.000000
     4  C    2.841675   2.471518   1.396056   0.000000
     5  C    4.216452   3.741685   2.410883   1.376017   0.000000
     6  C    5.009259   4.236655   2.771969   2.386975   1.390483
     7  C    4.776092   3.762584   2.409034   2.768752   2.407178
     8  C    3.615905   2.500523   1.402705   2.420788   2.798303
     9  N    4.055994   2.855613   2.419215   3.692435   4.191426
    10  C    5.373197   4.200242   3.681241   4.837062   5.085700
    11  C    6.083776   4.981779   4.193626   5.097804   5.073476
    12  C    7.424295   6.324834   5.569878   6.442007   6.309983
    13  C    8.122578   6.983458   6.409708   7.427001   7.394233
    14  C    9.576641   8.446770   7.855867   8.828921   8.709048
    15  C   10.472982   9.305322   8.740769   9.738470   9.596030
    16  C   11.824162  10.664809  10.085063  11.053249  10.857722
    17  C   12.346100  11.227524  10.617398  11.535734  11.309413
    18  C   11.605925  10.537086   9.912281  10.790265  10.578752
    19  C   10.225705   9.158403   8.539530   9.436812   9.276171
    20  C    7.587754   6.434068   6.078401   7.247061   7.406067
    21  C    6.262767   5.100908   4.839428   6.079597   6.389343
    22  C    6.088597   4.997277   5.100393   6.435225   6.963274
    23  O    7.137829   6.088220   6.261572   7.587929   8.101273
    24  C    4.780080   3.776085   4.193807   5.567994   6.332969
    25  C    5.008319   4.247350   5.028987   6.368394   7.295390
    26  C    4.221609   3.752143   4.855617   6.088917   7.193097
    27  C    2.843285   2.474011   3.732013   4.873399   6.069016
    28  C    2.368533   1.470320   2.456549   3.728665   4.837744
    29  C    3.610994   2.498403   2.797530   4.182164   4.995869
    30  H    2.507093   2.630916   2.122003   1.079591   2.149644
    31  H    4.881561   4.605892   3.390662   2.136706   1.078823
    32  H    6.069907   5.313944   3.851046   3.366094   2.144667
    33  H    5.723032   4.634363   3.388153   3.846606   3.381268
    34  H    5.758748   4.749654   3.783437   4.469925   4.336788
    35  H    8.079103   7.032801   6.167571   6.878739   6.596848
    36  H   10.203810   9.013112   8.486491   9.514757   9.403668
    37  H   12.557231  11.380301  10.819217  11.798489  11.593749
    38  H   13.421110  12.305730  11.690634  12.593909  12.338851
    39  H   12.188500  11.165951  10.531453  11.357680  11.126883
    40  H    9.748335   8.743452   8.122021   8.969806   8.831854
    41  H    8.316392   7.179894   6.953808   8.170816   8.381985
    42  H    6.074142   5.326894   6.069277   7.413781   8.292412
    43  H    4.883800   4.613292   5.815880   6.985461   8.138202
    44  H    2.514156   2.634978   4.051677   4.976797   6.271579
                    6          7          8          9         10
     6  C    0.000000
     7  C    1.378727   0.000000
     8  C    2.410075   1.397641   0.000000
     9  N    3.690389   2.433690   1.393233   0.000000
    10  C    4.286513   2.928036   2.445300   1.393379   0.000000
    11  C    4.126041   2.928314   2.933061   2.436328   1.397414
    12  C    5.251379   4.124821   4.289828   3.691880   2.410575
    13  C    6.322745   5.085862   5.105881   4.211707   2.818453
    14  C    7.573522   6.406683   6.541419   5.680503   4.287381
    15  C    8.404173   7.221059   7.391783   6.479192   5.122725
    16  C    9.636472   8.503315   8.732739   7.845009   6.477523
    17  C   10.109659   9.039032   9.293774   8.466707   7.073845
    18  C    9.441477   8.413088   8.642932   7.881205   6.502316
    19  C    8.176483   7.111919   7.283994   6.522663   5.153736
    20  C    6.436825   5.090921   4.836301   3.692050   2.420516
    21  C    5.566303   4.188173   3.681729   2.420524   1.402664
    22  C    6.322399   4.977239   4.200603   2.856587   2.499982
    23  O    7.420489   6.077922   5.372793   4.056567   3.615278
    24  C    5.971543   4.741185   3.652415   2.417277   2.796012
    25  C    7.105956   5.962801   4.782370   3.683029   4.177389
    26  C    7.268564   6.300473   5.002785   4.182576   5.002103
    27  C    6.329386   5.526688   4.178412   3.682983   4.782056
    28  C    4.999481   4.164103   2.797062   2.417025   3.652099
    29  C    4.761230   3.630618   2.383342   1.377340   2.382752
    30  H    3.379578   3.847579   3.382302   4.538896   5.757935
    31  H    2.146020   3.382415   3.876979   5.270054   6.137997
    32  H    1.079690   2.126553   3.383360   4.557486   4.940453
    33  H    2.130845   1.079198   2.148646   2.671875   2.662789
    34  H    3.456701   2.488650   2.670122   2.676367   2.148695
    35  H    5.513297   4.578135   4.938940   4.556501   3.381939
    36  H    8.214574   6.997969   7.137776   6.187868   4.914090
    37  H   10.349463   9.213848   9.456888   8.548936   7.217952
    38  H   11.124610  10.081336  10.365191   9.546406   8.153614
    39  H   10.026739   9.067123   9.309622   8.608110   7.257614
    40  H    7.815810   6.813953   6.948166   6.273258   4.976080
    41  H    7.425230   6.068694   5.756869   4.536530   3.380785
    42  H    8.016947   6.819946   5.717916   4.533679   4.792271
    43  H    8.283828   7.354096   6.054621   5.261378   6.053922
    44  H    6.749357   6.126329   4.793340   4.533522   5.717722
                   11         12         13         14         15
    11  C    0.000000
    12  C    1.376820   0.000000
    13  C    2.420624   1.398769   0.000000
    14  C    3.766716   2.498174   1.469253   0.000000
    15  C    4.830973   3.674174   2.482591   1.393339   0.000000
    16  C    6.089101   4.840899   3.753928   2.410126   1.382153
    17  C    6.471087   5.124172   4.256086   2.786850   2.398880
    18  C    5.728713   4.365034   3.759382   2.409941   2.766711
    19  C    4.365906   3.016900   2.490629   1.392960   2.398360
    20  C    2.764246   2.384142   1.384979   2.484612   3.000695
    21  C    2.404703   2.767812   2.424414   3.771761   4.355402
    22  C    3.759352   4.232639   3.752254   4.948859   5.298027
    23  O    4.771995   5.004400   4.222038   5.160581   5.219193
    24  C    4.162751   4.996754   4.851711   6.172102   6.672767
    25  C    5.525449   6.326345   6.081345   7.319255   7.727972
    26  C    6.300915   7.266888   7.207592   8.510214   9.012520
    27  C    5.965068   7.106026   7.312772   8.709312   9.359977
    28  C    4.744093   5.972384   6.351775   7.797121   8.536794
    29  C    3.631870   4.760935   5.013906   6.451829   7.144116
    30  H    6.072426   7.426819   8.401667   9.816331  10.743945
    31  H    6.036539   7.220043   8.353154   9.624333  10.515626
    32  H    4.587754   5.522964   6.614806   7.739349   8.516489
    33  H    2.487716   3.455564   4.345829   5.583075   6.317870
    34  H    1.079307   2.127052   3.391851   4.624390   5.751882
    35  H    2.122719   1.079727   2.147266   2.709426   3.955264
    36  H    4.876788   3.933745   2.685797   2.142376   1.080018
    37  H    6.945526   5.758982   4.616732   3.386436   2.135407
    38  H    7.535095   6.179614   5.335928   3.866694   3.377656
    39  H    6.376624   5.036824   4.624656   3.386274   3.846969
    40  H    4.032416   2.779329   2.702950   2.144524   3.379398
    41  H    3.842832   3.377397   2.152027   2.721563   2.802808
    42  H    6.123981   6.745216   6.280782   7.379622   7.632071
    43  H    7.354378   8.281846   8.151665   9.405181   9.850094
    44  H    6.823014   8.017704   8.310486   9.719408  10.409718
                   16         17         18         19         20
    16  C    0.000000
    17  C    1.385013   0.000000
    18  C    2.395236   1.384777   0.000000
    19  C    2.766960   2.399058   1.382453   0.000000
    20  C    4.347299   5.106583   4.824658   3.660161   0.000000
    21  C    5.719673   6.472508   6.100772   4.846430   1.393094
    22  C    6.614431   7.486309   7.248590   6.073829   2.467649
    23  O    6.434551   7.423648   7.385945   6.358728   2.837705
    24  C    8.007006   8.804605   8.438204   7.186619   3.725402
    25  C    9.012327   9.840698   9.529302   8.327949   4.869897
    26  C   10.314431  11.093837  10.696963   9.450441   6.086045
    27  C   10.703455  11.407608  10.888564   9.572705   6.366344
    28  C    9.900426  10.556455   9.976846   8.626073   5.566332
    29  C    8.511498   9.205499   8.687545   7.353861   4.180316
    30  H   12.065678  12.536042  11.762318  10.400189   8.171766
    31  H   11.745780  12.160578  11.410472  10.136274   8.432154
    32  H    9.674095  10.118830   9.484990   8.296974   6.878050
    33  H    7.572840   8.143961   7.597804   6.344839   4.459701
    34  H    6.948967   7.213757   6.360516   5.022109   3.842392
    35  H    4.911444   4.942948   4.022347   2.769861   3.365376
    36  H    2.137174   3.376863   3.846662   3.377701   2.759756
    37  H    1.080111   2.140471   3.375188   3.847066   5.018932
    38  H    2.141772   1.079844   2.141190   3.377606   6.161635
    39  H    3.375409   2.140453   1.080277   2.135646   5.742943
    40  H    3.847177   3.375901   2.135608   1.080394   3.925265
    41  H    4.044099   4.948055   4.903230   3.945902   1.079862
    42  H    8.846509   9.732052   9.540275   8.430026   4.972844
    43  H   11.118913  11.916554  11.558304  10.346480   6.982401
    44  H   11.754565  12.429809  11.866636  10.537537   7.411977
                   21         22         23         24         25
    21  C    0.000000
    22  C    1.470254   0.000000
    23  O    2.369665   1.218320   0.000000
    24  C    2.456759   1.470287   2.368587   0.000000
    25  C    3.732109   2.473642   2.843149   1.392397   0.000000
    26  C    4.856044   3.751975   4.221458   2.415525   1.382062
    27  C    5.029743   4.247446   5.008228   2.777410   2.385558
    28  C    4.194544   3.776255   4.779962   2.420852   2.777275
    29  C    2.798314   2.498890   3.611227   1.405867   2.421327
    30  H    6.957236   7.186017   8.322627   6.169329   6.791564
    31  H    7.449476   8.036525   9.166816   7.393070   8.318259
    32  H    6.166927   7.030718   8.074597   6.835647   8.018244
    33  H    3.773875   4.740180   5.747480   4.828946   6.142213
    34  H    3.385353   4.633602   5.721097   4.781576   6.111828
    35  H    3.847289   5.310872   6.066139   6.037111   7.366711
    36  H    4.004077   4.767599   4.561451   6.191595   7.200179
    37  H    6.360278   7.110994   6.776745   8.550553   9.486408
    38  H    7.535917   8.511652   8.385902   9.847571  10.852740
    39  H    6.962036   8.136862   8.326095   9.258527  10.345481
    40  H    4.904873   6.193109   6.645958   7.136137   8.296075
    41  H    2.117887   2.622286   2.498629   4.040260   4.970504
    42  H    4.051564   2.634424   2.513989   2.119138   1.079920
    43  H    5.816213   4.612979   4.883524   3.392432   2.140108
    44  H    6.070089   5.326983   6.074010   3.856820   3.376337
                   26         27         28         29         30
    26  C    0.000000
    27  C    1.382006   0.000000
    28  C    2.415465   1.392480   0.000000
    29  C    2.805237   2.421354   1.405695   0.000000
    30  H    6.297969   4.982132   4.049748   4.797545   0.000000
    31  H    8.144396   6.969914   5.800984   6.050494   2.491756
    32  H    8.259132   7.367424   6.038616   5.703616   4.277710
    33  H    6.694846   6.108810   4.779350   3.960376   4.925010
    34  H    6.700236   6.149656   4.836597   3.965264   5.434737
    35  H    8.259962   8.020107   6.837028   5.703260   7.861287
    36  H    8.516552   8.931438   8.165831   6.760244  10.517371
    37  H   10.825320  11.297834  10.552637   9.151074  12.817378
    38  H   12.119234  12.463655  11.629181  10.277325  13.597131
    39  H   11.465669  11.607185  10.679190   9.440460  12.305671
    40  H    9.313836   9.318287   8.329353   7.148048   9.893947
    41  H    6.286580   6.781870   6.161685   4.790879   9.068258
    42  H    2.153123   3.376301   3.856699   3.383513   7.860994
    43  H    1.078801   2.140069   3.392414   3.884038   7.089214
    44  H    2.153126   1.079906   2.119209   3.383479   4.848814
                   31         32         33         34         35
    31  H    0.000000
    32  H    2.472475   0.000000
    33  H    4.267849   2.441664   0.000000
    34  H    5.233490   3.913876   2.291459   0.000000
    35  H    7.410121   5.635172   3.903388   2.433343   0.000000
    36  H   10.343219   8.352898   6.087492   5.859851   4.422811
    37  H   12.481946  10.360578   8.254022   7.836992   5.889019
    38  H   13.170509  11.091905   9.171725   8.251653   5.935435
    39  H   11.917387  10.047605   8.297293   6.890566   4.532582
    40  H    9.665454   7.975208   6.157788   4.525015   2.342187
    41  H    9.418171   7.864987   5.429590   4.920376   4.278635
    42  H    9.324684   8.882414   6.879054   6.829564   7.805618
    43  H    9.052725   9.280386   7.759894   7.765373   9.281485
    44  H    7.066315   7.806959   6.827873   6.887658   8.885154
                   36         37         38         39         40
    36  H    0.000000
    37  H    2.457941   0.000000
    38  H    4.268537   2.467885   0.000000
    39  H    4.926933   4.269240   2.467253   0.000000
    40  H    4.272996   4.927285   4.266660   2.454962   0.000000
    41  H    2.395327   4.561672   5.939427   5.872610   4.403658
    42  H    7.051902   9.231043  10.699919  10.387016   8.504597
    43  H    9.329509  11.586170  12.920137  12.326140  10.229783
    44  H    9.997199  12.364658  13.488432  12.552385  10.227125
                   41         42         43         44
    41  H    0.000000
    42  H    4.836198   0.000000
    43  H    7.076915   2.491225   0.000000
    44  H    7.851278   4.289724   2.491281   0.000000
 Stoichiometry    C26H15NO2
 Framework group  C1[X(C26H15NO2)]
 Deg. of freedom   126
 Full point group                 C1      NOp   1
 Largest Abelian subgroup         C1      NOp   1
 Largest concise Abelian subgroup C1      NOp   1
                         Standard orientation:                         
 ---------------------------------------------------------------------
 Center     Atomic      Atomic             Coordinates (Angstroms)
 Number     Number       Type             X           Y           Z
 ---------------------------------------------------------------------
      1          8           0        5.210376   -0.164466    1.212749
      2          6           0        4.122462   -0.155072    0.664283
      3          6           0        3.472559   -1.363704    0.137311
      4          6           0        4.228972   -2.525486   -0.027230
      5          6           0        3.688493   -3.640437   -0.625719
      6          6           0        2.384998   -3.589126   -1.107084
      7          6           0        1.614966   -2.458132   -0.937409
      8          6           0        2.131092   -1.342624   -0.272083
      9          7           0        1.365056   -0.195341   -0.077078
     10          6           0       -0.025476   -0.224256    0.007126
     11          6           0       -0.708417   -1.355108    0.462683
     12          6           0       -2.083718   -1.366606    0.526305
     13          6           0       -2.840600   -0.255384    0.140470
     14          6           0       -4.309100   -0.287140    0.175165
     15          6           0       -5.048647    0.322110   -0.836407
     16          6           0       -6.430256    0.292312   -0.811568
     17          6           0       -7.094986   -0.339860    0.226099
     18          6           0       -6.369329   -0.943721    1.239204
     19          6           0       -4.987297   -0.921112    1.213658
     20          6           0       -2.160699    0.886680   -0.248880
     21          6           0       -0.769000    0.925401   -0.297714
     22          6           0       -0.101032    2.201280   -0.593685
     23          8           0       -0.679620    3.168769   -1.055751
     24          6           0        1.318591    2.217754   -0.211401
     25          6           0        1.986967    3.434686   -0.105962
     26          6           0        3.317550    3.487786    0.263935
     27          6           0        3.996337    2.311504    0.519963
     28          6           0        3.364596    1.076532    0.398519
     29          6           0        2.007882    1.017581    0.035433
     30          1           0        5.252263   -2.505424    0.316267
     31          1           0        4.276914   -4.536336   -0.748128
     32          1           0        1.969051   -4.437431   -1.629670
     33          1           0        0.618694   -2.422375   -1.350725
     34          1           0       -0.153554   -2.218387    0.797019
     35          1           0       -2.585404   -2.257791    0.872585
     36          1           0       -4.534267    0.804434   -1.654463
     37          1           0       -6.991373    0.763702   -1.605029
     38          1           0       -8.174446   -0.360532    0.246158
     39          1           0       -6.882724   -1.432636    2.054302
     40          1           0       -4.428657   -1.377014    2.018224
     41          1           0       -2.689828    1.796173   -0.491669
     42          1           0        1.425142    4.331326   -0.321872
     43          1           0        3.821188    4.437754    0.351803
     44          1           0        5.034101    2.312352    0.818696
 ---------------------------------------------------------------------
 Rotational constants (GHZ):           0.3277968           0.1002809           0.0810118
 Leave Link  202 at Mon Jan 19 14:10:54 2026, MaxMem=  8053063680 cpu:               0.1 elap:               0.0
 (Enter /appl/Gaussian16/AVX_revB01/g16/l301.exe)
 Standard basis: 6-31G(d) (6D, 7F)
 Ernie: Thresh=  0.10000D-02 Tol=  0.10000D-05 Strict=F.
 There are   465 symmetry adapted cartesian basis functions of A   symmetry.
 There are   465 symmetry adapted basis functions of A   symmetry.
   465 basis functions,   872 primitive gaussians,   465 cartesian basis functions
    97 alpha electrons       97 beta electrons
       nuclear repulsion energy      2461.2520331180 Hartrees.
 IExCor=  402 DFT=T Ex+Corr=B3LYP ExCW=0 ScaHFX=  0.200000
 ScaDFX=  0.800000  0.720000  1.000000  0.810000 ScalE2=  1.000000  1.000000
 IRadAn=      5 IRanWt=     -1 IRanGd=            0 ICorTp=0 IEmpDi=  4
 NAtoms=   44 NActive=   44 NUniq=   44 SFac= 1.00D+00 NAtFMM=   60 NAOKFM=F Big=F
 Integral buffers will be    131072 words long.
 Raffenetti 2 integral format.
 Two-electron integral symmetry is turned on.
 Leave Link  301 at Mon Jan 19 14:10:54 2026, MaxMem=  8053063680 cpu:               0.6 elap:               0.1
 (Enter /appl/Gaussian16/AVX_revB01/g16/l302.exe)
 NPDir=0 NMtPBC=     1 NCelOv=     1 NCel=       1 NClECP=     1 NCelD=      1
         NCelK=      1 NCelE2=     1 NClLst=     1 CellRange=     0.0.
 One-electron integrals computed using PRISM.
 One-electron integral symmetry used in STVInt
 NBasis=   465 RedAO= T EigKep=  2.78D-04  NBF=   465
 NBsUse=   465 1.00D-06 EigRej= -1.00D+00 NBFU=   465
 Precomputing XC quadrature grid using
 IXCGrd= 4 IRadAn=           5 IRanWt=          -1 IRanGd=           0 AccXCQ= 0.00D+00.
 Generated NRdTot=       0 NPtTot=           0 NUsed=           0 NTot=          32
 NSgBfM=   458   458   458   458   458 MxSgAt=    44 MxSgA2=    44.
 Leave Link  302 at Mon Jan 19 14:10:55 2026, MaxMem=  8053063680 cpu:               6.8 elap:               0.4
 (Enter /appl/Gaussian16/AVX_revB01/g16/l303.exe)
 DipDrv:  MaxL=1.
 Leave Link  303 at Mon Jan 19 14:10:55 2026, MaxMem=  8053063680 cpu:               0.8 elap:               0.1
 (Enter /appl/Gaussian16/AVX_revB01/g16/l401.exe)
 ExpMin= 1.61D-01 ExpMax= 5.48D+03 ExpMxC= 8.25D+02 IAcc=3 IRadAn=         5 AccDes= 0.00D+00
 Harris functional with IExCor=  402 and IRadAn=       5 diagonalized for initial guess.
 HarFok:  IExCor=  402 AccDes= 0.00D+00 IRadAn=         5 IDoV= 1 UseB2=F ITyADJ=14
 ICtDFT=  3500011 ScaDFX=  1.000000  1.000000  1.000000  1.000000
 FoFCou: FMM=F IPFlag=           0 FMFlag=      100000 FMFlg1=           0
         NFxFlg=           0 DoJE=T BraDBF=F KetDBF=T FulRan=T
         wScrn=  0.000000 ICntrl=       500 IOpCl=  0 I1Cent=   200000004 NGrid=           0
         NMat0=    1 NMatS0=      1 NMatT0=    0 NMatD0=    1 NMtDS0=    0 NMtDT0=    0
 Petite list used in FoFCou.
 Harris En= -1205.04685077428    
 JPrj=0 DoOrth=F DoCkMO=F.
 Leave Link  401 at Mon Jan 19 14:10:57 2026, MaxMem=  8053063680 cpu:              27.4 elap:               1.7
 (Enter /appl/Gaussian16/AVX_revB01/g16/l502.exe)
 Integral symmetry usage will be decided dynamically.
 Closed shell SCF:
 Using DIIS extrapolation, IDIIS=  1040.
 NGot=  8053063680 LenX=  8052618947 LenY=  8052402257
 Requested convergence on RMS density matrix=1.00D-08 within  32 cycles.
 Requested convergence on MAX density matrix=1.00D-06.
 Requested convergence on             energy=1.00D-06.
 No special actions if energy rises.
 Fock matrices will be formed incrementally for  20 cycles.
 Integral accuracy reduced to 1.0D-05 until final iterations.

 Cycle   1  Pass 0  IDiag  1:
 FoFJK:  IHMeth= 1 ICntrl=       0 DoSepK=F KAlg= 0 I1Cent=           0 FoldK=F
 IRaf= 660000000 NMat=       1 IRICut=       1 DoRegI=T DoRafI=F ISym2E= 0 IDoP0=0 IntGTp=1.
 FoFCou: FMM=F IPFlag=           0 FMFlag=      100000 FMFlg1=           0
         NFxFlg=           0 DoJE=F BraDBF=F KetDBF=F FulRan=T
         wScrn=  0.000000 ICntrl=         0 IOpCl=  0 I1Cent=           0 NGrid=           0
         NMat0=    1 NMatS0=      1 NMatT0=    0 NMatD0=    1 NMtDS0=    0 NMtDT0=    0
 Symmetry not used in FoFCou.
 E= -1204.43206003469    
 DIIS: error= 2.89D-02 at cycle   1 NSaved=   1.
 NSaved= 1 IEnMin= 1 EnMin= -1204.43206003469     IErMin= 1 ErrMin= 2.89D-02
 ErrMax= 2.89D-02  0.00D+00 EMaxC= 1.00D-01 BMatC= 6.22D-01 BMatP= 6.22D-01
 IDIUse=3 WtCom= 7.11D-01 WtEn= 2.89D-01
 Coeff-Com:  0.100D+01
 Coeff-En:   0.100D+01
 Coeff:      0.100D+01
 Gap=     0.171 Goal=   None    Shift=    0.000
 GapD=    0.171 DampG=1.000 DampE=0.500 DampFc=0.5000 IDamp=-1.
 Damping current iteration by 5.00D-01
 RMSDP=5.32D-03 MaxDP=2.01D-01              OVMax= 3.45D-01

 Cycle   2  Pass 0  IDiag  1:
 RMSU=  2.62D-03    CP:  9.74D-01
 E= -1204.56796193103     Delta-E=       -0.135901896335 Rises=F Damp=T
 DIIS: error= 1.44D-02 at cycle   2 NSaved=   2.
 NSaved= 2 IEnMin= 2 EnMin= -1204.56796193103     IErMin= 2 ErrMin= 1.44D-02
 ErrMax= 1.44D-02  0.00D+00 EMaxC= 1.00D-01 BMatC= 1.51D-01 BMatP= 6.22D-01
 IDIUse=3 WtCom= 8.56D-01 WtEn= 1.44D-01
 Coeff-Com:  0.246D+00 0.754D+00
 Coeff-En:   0.375D+00 0.625D+00
 Coeff:      0.265D+00 0.735D+00
 Gap=     0.200 Goal=   None    Shift=    0.000
 RMSDP=2.19D-03 MaxDP=1.21D-01 DE=-1.36D-01 OVMax= 4.04D-01

 Cycle   3  Pass 0  IDiag  1:
 RMSU=  1.90D-03    CP:  9.49D-01  6.15D-01
 E= -1204.86495108903     Delta-E=       -0.296989158008 Rises=F Damp=F
 DIIS: error= 1.76D-02 at cycle   3 NSaved=   3.
 NSaved= 3 IEnMin= 3 EnMin= -1204.86495108903     IErMin= 2 ErrMin= 1.44D-02
 ErrMax= 1.76D-02  0.00D+00 EMaxC= 1.00D-01 BMatC= 1.76D-01 BMatP= 1.51D-01
 IDIUse=2 WtCom= 0.00D+00 WtEn= 1.00D+00
 Coeff-En:   0.000D+00 0.136D+00 0.864D+00
 Coeff:      0.000D+00 0.136D+00 0.864D+00
 Gap=     0.175 Goal=   None    Shift=    0.000
 RMSDP=3.22D-03 MaxDP=1.49D-01 DE=-2.97D-01 OVMax= 3.09D-01

 Cycle   4  Pass 0  IDiag  1:
 RMSU=  1.34D-03    CP:  9.60D-01  1.34D+00 -1.72D-01
 E= -1204.31863981635     Delta-E=        0.546311272689 Rises=F Damp=F
 DIIS: error= 3.76D-02 at cycle   4 NSaved=   4.
 NSaved= 4 IEnMin= 3 EnMin= -1204.86495108903     IErMin= 2 ErrMin= 1.44D-02
 ErrMax= 3.76D-02  0.00D+00 EMaxC= 1.00D-01 BMatC= 7.62D-01 BMatP= 1.51D-01
 IDIUse=2 WtCom= 0.00D+00 WtEn= 1.00D+00
 Coeff-En:   0.000D+00 0.000D+00 0.734D+00 0.266D+00
 Coeff:      0.000D+00 0.000D+00 0.734D+00 0.266D+00
 Gap=     0.164 Goal=   None    Shift=    0.000
 RMSDP=1.79D-03 MaxDP=8.08D-02 DE= 5.46D-01 OVMax= 1.91D-01

 Cycle   5  Pass 0  IDiag  1:
 RMSU=  3.34D-04    CP:  9.56D-01  8.68D-01  4.18D-01  5.82D-01
 E= -1205.01130902239     Delta-E=       -0.692669206044 Rises=F Damp=F
 DIIS: error= 7.62D-03 at cycle   5 NSaved=   5.
 NSaved= 5 IEnMin= 5 EnMin= -1205.01130902239     IErMin= 5 ErrMin= 7.62D-03
 ErrMax= 7.62D-03  0.00D+00 EMaxC= 1.00D-01 BMatC= 3.49D-02 BMatP= 1.51D-01
 IDIUse=3 WtCom= 9.24D-01 WtEn= 7.62D-02
 Coeff-Com: -0.155D-01 0.513D-01 0.255D+00-0.681D-01 0.778D+00
 Coeff-En:   0.000D+00 0.000D+00 0.219D+00 0.000D+00 0.781D+00
 Coeff:     -0.143D-01 0.474D-01 0.252D+00-0.629D-01 0.778D+00
 Gap=     0.129 Goal=   None    Shift=    0.000
 RMSDP=5.26D-04 MaxDP=3.23D-02 DE=-6.93D-01 OVMax= 6.65D-02

 Cycle   6  Pass 0  IDiag  1:
 RMSU=  1.42D-04    CP:  9.54D-01  7.88D-01  6.13D-01  3.91D-01  7.39D-01
 E= -1205.04621824518     Delta-E=       -0.034909222792 Rises=F Damp=F
 DIIS: error= 1.35D-03 at cycle   6 NSaved=   6.
 NSaved= 6 IEnMin= 6 EnMin= -1205.04621824518     IErMin= 6 ErrMin= 1.35D-03
 ErrMax= 1.35D-03  0.00D+00 EMaxC= 1.00D-01 BMatC= 1.17D-03 BMatP= 3.49D-02
 IDIUse=3 WtCom= 9.86D-01 WtEn= 1.35D-02
 Coeff-Com: -0.160D-01 0.393D-01 0.125D+00-0.670D-01 0.517D+00 0.402D+00
 Coeff-En:   0.000D+00 0.000D+00 0.000D+00 0.000D+00 0.000D+00 0.100D+01
 Coeff:     -0.158D-01 0.388D-01 0.123D+00-0.661D-01 0.510D+00 0.410D+00
 Gap=     0.130 Goal=   None    Shift=    0.000
 RMSDP=9.37D-05 MaxDP=7.08D-03 DE=-3.49D-02 OVMax= 1.08D-02

 Cycle   7  Pass 0  IDiag  1:
 RMSU=  2.73D-05    CP:  9.54D-01  7.93D-01  6.03D-01  4.01D-01  8.61D-01
                    CP:  4.72D-01
 E= -1205.04733061408     Delta-E=       -0.001112368903 Rises=F Damp=F
 DIIS: error= 1.84D-04 at cycle   7 NSaved=   7.
 NSaved= 7 IEnMin= 7 EnMin= -1205.04733061408     IErMin= 7 ErrMin= 1.84D-04
 ErrMax= 1.84D-04  0.00D+00 EMaxC= 1.00D-01 BMatC= 3.35D-05 BMatP= 1.17D-03
 IDIUse=3 WtCom= 9.98D-01 WtEn= 1.84D-03
 Coeff-Com: -0.616D-02 0.149D-01 0.447D-01-0.275D-01 0.193D+00 0.202D+00
 Coeff-Com:  0.579D+00
 Coeff-En:   0.000D+00 0.000D+00 0.000D+00 0.000D+00 0.000D+00 0.000D+00
 Coeff-En:   0.100D+01
 Coeff:     -0.615D-02 0.149D-01 0.446D-01-0.275D-01 0.193D+00 0.201D+00
 Coeff:      0.580D+00
 Gap=     0.130 Goal=   None    Shift=    0.000
 RMSDP=1.78D-05 MaxDP=9.44D-04 DE=-1.11D-03 OVMax= 1.99D-03

 Cycle   8  Pass 0  IDiag  1:
 RMSU=  1.24D-05    CP:  9.54D-01  7.92D-01  6.05D-01  3.99D-01  8.55D-01
                    CP:  5.17D-01  6.52D-01
 E= -1205.04736172307     Delta-E=       -0.000031108990 Rises=F Damp=F
 DIIS: error= 6.51D-05 at cycle   8 NSaved=   8.
 NSaved= 8 IEnMin= 8 EnMin= -1205.04736172307     IErMin= 8 ErrMin= 6.51D-05
 ErrMax= 6.51D-05  0.00D+00 EMaxC= 1.00D-01 BMatC= 5.96D-06 BMatP= 3.35D-05
 IDIUse=1 WtCom= 1.00D+00 WtEn= 0.00D+00
 Coeff-Com: -0.596D-03 0.638D-03 0.641D-02-0.396D-02 0.256D-01 0.533D-01
 Coeff-Com:  0.357D+00 0.561D+00
 Coeff:     -0.596D-03 0.638D-03 0.641D-02-0.396D-02 0.256D-01 0.533D-01
 Coeff:      0.357D+00 0.561D+00
 Gap=     0.130 Goal=   None    Shift=    0.000
 RMSDP=7.25D-06 MaxDP=3.10D-04 DE=-3.11D-05 OVMax= 6.32D-04

 Initial convergence to 1.0D-05 achieved.  Increase integral accuracy.
 Cycle   9  Pass 1  IDiag  1:
 E= -1205.04735874469     Delta-E=        0.000002978387 Rises=F Damp=F
 DIIS: error= 8.44D-05 at cycle   1 NSaved=   1.
 NSaved= 1 IEnMin= 1 EnMin= -1205.04735874469     IErMin= 1 ErrMin= 8.44D-05
 ErrMax= 8.44D-05  0.00D+00 EMaxC= 1.00D-01 BMatC= 3.08D-06 BMatP= 3.08D-06
 IDIUse=1 WtCom= 1.00D+00 WtEn= 0.00D+00
 Coeff-Com:  0.100D+01
 Coeff:      0.100D+01
 Gap=     0.130 Goal=   None    Shift=    0.000
 RMSDP=7.25D-06 MaxDP=3.10D-04 DE= 2.98D-06 OVMax= 6.20D-04

 Cycle  10  Pass 1  IDiag  1:
 RMSU=  6.34D-05    CP:  1.00D+00
 E= -1205.04735851758     Delta-E=        0.000000227109 Rises=F Damp=F
 DIIS: error= 7.92D-05 at cycle   2 NSaved=   2.
 NSaved= 2 IEnMin= 1 EnMin= -1205.04735874469     IErMin= 2 ErrMin= 7.92D-05
 ErrMax= 7.92D-05  0.00D+00 EMaxC= 1.00D-01 BMatC= 2.65D-06 BMatP= 3.08D-06
 IDIUse=1 WtCom= 1.00D+00 WtEn= 0.00D+00
 Coeff-Com:  0.474D+00 0.526D+00
 Coeff:      0.474D+00 0.526D+00
 Gap=     0.130 Goal=   None    Shift=    0.000
 RMSDP=7.22D-06 MaxDP=2.77D-04 DE= 2.27D-07 OVMax= 7.98D-04

 Cycle  11  Pass 1  IDiag  1:
 RMSU=  7.21D-06    CP:  1.00D+00  9.94D-01
 E= -1205.04735987194     Delta-E=       -0.000001354363 Rises=F Damp=F
 DIIS: error= 5.76D-05 at cycle   3 NSaved=   3.
 NSaved= 3 IEnMin= 3 EnMin= -1205.04735987194     IErMin= 3 ErrMin= 5.76D-05
 ErrMax= 5.76D-05  0.00D+00 EMaxC= 1.00D-01 BMatC= 1.40D-06 BMatP= 2.65D-06
 IDIUse=1 WtCom= 1.00D+00 WtEn= 0.00D+00
 Coeff-Com:  0.286D-01 0.415D+00 0.556D+00
 Coeff:      0.286D-01 0.415D+00 0.556D+00
 Gap=     0.130 Goal=   None    Shift=    0.000
 RMSDP=3.39D-06 MaxDP=1.44D-04 DE=-1.35D-06 OVMax= 4.25D-04

 Cycle  12  Pass 1  IDiag  1:
 RMSU=  1.36D-06    CP:  1.00D+00  1.00D+00  5.78D-01
 E= -1205.04736131749     Delta-E=       -0.000001445547 Rises=F Damp=F
 DIIS: error= 1.04D-05 at cycle   4 NSaved=   4.
 NSaved= 4 IEnMin= 4 EnMin= -1205.04736131749     IErMin= 4 ErrMin= 1.04D-05
 ErrMax= 1.04D-05  0.00D+00 EMaxC= 1.00D-01 BMatC= 1.12D-07 BMatP= 1.40D-06
 IDIUse=1 WtCom= 1.00D+00 WtEn= 0.00D+00
 Coeff-Com: -0.101D-02 0.260D+00 0.376D+00 0.365D+00
 Coeff:     -0.101D-02 0.260D+00 0.376D+00 0.365D+00
 Gap=     0.130 Goal=   None    Shift=    0.000
 RMSDP=9.44D-07 MaxDP=4.40D-05 DE=-1.45D-06 OVMax= 1.07D-04

 Cycle  13  Pass 1  IDiag  1:
 RMSU=  3.28D-07    CP:  1.00D+00  1.00D+00  5.92D-01  3.54D-01
 E= -1205.04736142201     Delta-E=       -0.000000104524 Rises=F Damp=F
 DIIS: error= 2.78D-06 at cycle   5 NSaved=   5.
 NSaved= 5 IEnMin= 5 EnMin= -1205.04736142201     IErMin= 5 ErrMin= 2.78D-06
 ErrMax= 2.78D-06  0.00D+00 EMaxC= 1.00D-01 BMatC= 5.84D-09 BMatP= 1.12D-07
 IDIUse=1 WtCom= 1.00D+00 WtEn= 0.00D+00
 Coeff-Com: -0.214D-02 0.156D+00 0.228D+00 0.251D+00 0.367D+00
 Coeff:     -0.214D-02 0.156D+00 0.228D+00 0.251D+00 0.367D+00
 Gap=     0.130 Goal=   None    Shift=    0.000
 RMSDP=1.98D-07 MaxDP=1.04D-05 DE=-1.05D-07 OVMax= 1.53D-05

 Cycle  14  Pass 1  IDiag  1:
 RMSU=  7.62D-08    CP:  1.00D+00  1.00D+00  5.92D-01  3.87D-01  4.61D-01
 E= -1205.04736142740     Delta-E=       -0.000000005386 Rises=F Damp=F
 DIIS: error= 2.50D-07 at cycle   6 NSaved=   6.
 NSaved= 6 IEnMin= 6 EnMin= -1205.04736142740     IErMin= 6 ErrMin= 2.50D-07
 ErrMax= 2.50D-07  0.00D+00 EMaxC= 1.00D-01 BMatC= 6.51D-11 BMatP= 5.84D-09
 IDIUse=1 WtCom= 1.00D+00 WtEn= 0.00D+00
 Coeff-Com: -0.109D-02 0.726D-01 0.106D+00 0.118D+00 0.186D+00 0.518D+00
 Coeff:     -0.109D-02 0.726D-01 0.106D+00 0.118D+00 0.186D+00 0.518D+00
 Gap=     0.130 Goal=   None    Shift=    0.000
 RMSDP=2.62D-08 MaxDP=1.21D-06 DE=-5.39D-09 OVMax= 1.89D-06

 Cycle  15  Pass 1  IDiag  1:
 RMSU=  2.40D-08    CP:  1.00D+00  1.00D+00  5.92D-01  3.87D-01  4.57D-01
                    CP:  8.70D-01
 E= -1205.04736142751     Delta-E=       -0.000000000108 Rises=F Damp=F
 DIIS: error= 7.33D-08 at cycle   7 NSaved=   7.
 NSaved= 7 IEnMin= 7 EnMin= -1205.04736142751     IErMin= 7 ErrMin= 7.33D-08
 ErrMax= 7.33D-08  0.00D+00 EMaxC= 1.00D-01 BMatC= 7.13D-12 BMatP= 6.51D-11
 IDIUse=1 WtCom= 1.00D+00 WtEn= 0.00D+00
 Coeff-Com: -0.303D-03 0.189D-01 0.275D-01 0.308D-01 0.502D-01 0.271D+00
 Coeff-Com:  0.602D+00
 Coeff:     -0.303D-03 0.189D-01 0.275D-01 0.308D-01 0.502D-01 0.271D+00
 Coeff:      0.602D+00
 Gap=     0.130 Goal=   None    Shift=    0.000
 RMSDP=8.64D-09 MaxDP=5.00D-07 DE=-1.08D-10 OVMax= 8.69D-07

 SCF Done:  E(RB3LYP) =  -1205.04736143     A.U. after   15 cycles
            NFock= 15  Conv=0.86D-08     -V/T= 2.0087
 KE= 1.194711837666D+03 PE=-7.719800735999D+03 EE= 2.858789503787D+03
 Leave Link  502 at Mon Jan 19 14:11:35 2026, MaxMem=  8053063680 cpu:             612.6 elap:              38.3
 (Enter /appl/Gaussian16/AVX_revB01/g16/l508.exe)
 QCSCF skips out because SCF is already converged.
 Leave Link  508 at Mon Jan 19 14:11:36 2026, MaxMem=  8053063680 cpu:               0.2 elap:               0.1
 (Enter /appl/Gaussian16/AVX_revB01/g16/l601.exe)
 Copying SCF densities to generalized density rwf, IOpCl= 0 IROHF=0.

 **********************************************************************

            Population analysis using the SCF Density.

 **********************************************************************

 Orbital symmetries:
       Occupied  (A) (A) (A) (A) (A) (A) (A) (A) (A) (A) (A) (A)
                 (A) (A) (A) (A) (A) (A) (A) (A) (A) (A) (A) (A)
                 (A) (A) (A) (A) (A) (A) (A) (A) (A) (A) (A) (A)
                 (A) (A) (A) (A) (A) (A) (A) (A) (A) (A) (A) (A)
                 (A) (A) (A) (A) (A) (A) (A) (A) (A) (A) (A) (A)
                 (A) (A) (A) (A) (A) (A) (A) (A) (A) (A) (A) (A)
                 (A) (A) (A) (A) (A) (A) (A) (A) (A) (A) (A) (A)
                 (A) (A) (A) (A) (A) (A) (A) (A) (A) (A) (A) (A)
                 (A)
       Virtual   (A) (A) (A) (A) (A) (A) (A) (A) (A) (A) (A) (A)
                 (A) (A) (A) (A) (A) (A) (A) (A) (A) (A) (A) (A)
                 (A) (A) (A) (A) (A) (A) (A) (A) (A) (A) (A) (A)
                 (A) (A) (A) (A) (A) (A) (A) (A) (A) (A) (A) (A)
                 (A) (A) (A) (A) (A) (A) (A) (A) (A) (A) (A) (A)
                 (A) (A) (A) (A) (A) (A) (A) (A) (A) (A) (A) (A)
                 (A) (A) (A) (A) (A) (A) (A) (A) (A) (A) (A) (A)
                 (A) (A) (A) (A) (A) (A) (A) (A) (A) (A) (A) (A)
                 (A) (A) (A) (A) (A) (A) (A) (A) (A) (A) (A) (A)
                 (A) (A) (A) (A) (A) (A) (A) (A) (A) (A) (A) (A)
                 (A) (A) (A) (A) (A) (A) (A) (A) (A) (A) (A) (A)
                 (A) (A) (A) (A) (A) (A) (A) (A) (A) (A) (A) (A)
                 (A) (A) (A) (A) (A) (A) (A) (A) (A) (A) (A) (A)
                 (A) (A) (A) (A) (A) (A) (A) (A) (A) (A) (A) (A)
                 (A) (A) (A) (A) (A) (A) (A) (A) (A) (A) (A) (A)
                 (A) (A) (A) (A) (A) (A) (A) (A) (A) (A) (A) (A)
                 (A) (A) (A) (A) (A) (A) (A) (A) (A) (A) (A) (A)
                 (A) (A) (A) (A) (A) (A) (A) (A) (A) (A) (A) (A)
                 (A) (A) (A) (A) (A) (A) (A) (A) (A) (A) (A) (A)
                 (A) (A) (A) (A) (A) (A) (A) (A) (A) (A) (A) (A)
                 (A) (A) (A) (A) (A) (A) (A) (A) (A) (A) (A) (A)
                 (A) (A) (A) (A) (A) (A) (A) (A) (A) (A) (A) (A)
                 (A) (A) (A) (A) (A) (A) (A) (A) (A) (A) (A) (A)
                 (A) (A) (A) (A) (A) (A) (A) (A) (A) (A) (A) (A)
                 (A) (A) (A) (A) (A) (A) (A) (A) (A) (A) (A) (A)
                 (A) (A) (A) (A) (A) (A) (A) (A) (A) (A) (A) (A)
                 (A) (A) (A) (A) (A) (A) (A) (A) (A) (A) (A) (A)
                 (A) (A) (A) (A) (A) (A) (A) (A) (A) (A) (A) (A)
                 (A) (A) (A) (A) (A) (A) (A) (A) (A) (A) (A) (A)
                 (A) (A) (A) (A) (A) (A) (A) (A) (A) (A) (A) (A)
                 (A) (A) (A) (A) (A) (A) (A) (A)
 The electronic state is 1-A.
 Alpha  occ. eigenvalues --  -19.12898 -19.12858 -14.41544 -10.27130 -10.27112
 Alpha  occ. eigenvalues --  -10.25926 -10.25772 -10.25677 -10.21020 -10.20892
 Alpha  occ. eigenvalues --  -10.20813 -10.20810 -10.20801 -10.20777 -10.20762
 Alpha  occ. eigenvalues --  -10.20673 -10.20670 -10.20660 -10.20653 -10.20337
 Alpha  occ. eigenvalues --  -10.20150 -10.20130 -10.20068 -10.19979 -10.19265
 Alpha  occ. eigenvalues --  -10.19205 -10.19172 -10.19104 -10.19079  -1.03828
 Alpha  occ. eigenvalues --   -1.03462  -1.02228  -0.89042  -0.88393  -0.87136
 Alpha  occ. eigenvalues --   -0.85768  -0.81378  -0.79788  -0.78392  -0.76991
 Alpha  occ. eigenvalues --   -0.76762  -0.75695  -0.75249  -0.73205  -0.67694
 Alpha  occ. eigenvalues --   -0.66468  -0.65962  -0.65423  -0.61979  -0.60922
 Alpha  occ. eigenvalues --   -0.60439  -0.59987  -0.56920  -0.56788  -0.56312
 Alpha  occ. eigenvalues --   -0.54285  -0.52397  -0.49683  -0.49468  -0.48568
 Alpha  occ. eigenvalues --   -0.48418  -0.48148  -0.47425  -0.46104  -0.45551
 Alpha  occ. eigenvalues --   -0.45191  -0.44792  -0.44463  -0.44268  -0.43552
 Alpha  occ. eigenvalues --   -0.42727  -0.42504  -0.41923  -0.41461  -0.40161
 Alpha  occ. eigenvalues --   -0.39749  -0.38841  -0.38301  -0.37902  -0.37574
 Alpha  occ. eigenvalues --   -0.37155  -0.36689  -0.36417  -0.36162  -0.34907
 Alpha  occ. eigenvalues --   -0.34504  -0.33835  -0.28877  -0.27344  -0.27179
 Alpha  occ. eigenvalues --   -0.26708  -0.26600  -0.25733  -0.25502  -0.24800
 Alpha  occ. eigenvalues --   -0.24535  -0.21238
 Alpha virt. eigenvalues --   -0.08258  -0.05093  -0.04077  -0.02603  -0.01348
 Alpha virt. eigenvalues --   -0.00430  -0.00116   0.02099   0.04998   0.07608
 Alpha virt. eigenvalues --    0.08827   0.09335   0.10143   0.11034   0.13024
 Alpha virt. eigenvalues --    0.13802   0.14440   0.15037   0.15333   0.15900
 Alpha virt. eigenvalues --    0.16236   0.16912   0.17082   0.17225   0.17611
 Alpha virt. eigenvalues --    0.18431   0.18989   0.19033   0.19567   0.20808
 Alpha virt. eigenvalues --    0.22826   0.23766   0.24681   0.25836   0.26292
 Alpha virt. eigenvalues --    0.26406   0.27476   0.28795   0.28893   0.29279
 Alpha virt. eigenvalues --    0.30256   0.30801   0.31577   0.33027   0.33737
 Alpha virt. eigenvalues --    0.34033   0.34495   0.35662   0.35753   0.37438
 Alpha virt. eigenvalues --    0.37851   0.41677   0.41868   0.43659   0.43931
 Alpha virt. eigenvalues --    0.44697   0.46547   0.47517   0.48608   0.49256
 Alpha virt. eigenvalues --    0.50219   0.50521   0.51336   0.52027   0.52717
 Alpha virt. eigenvalues --    0.53205   0.53573   0.53848   0.54092   0.54559
 Alpha virt. eigenvalues --    0.55178   0.55387   0.56108   0.56282   0.56681
 Alpha virt. eigenvalues --    0.57099   0.57620   0.57771   0.58669   0.59012
 Alpha virt. eigenvalues --    0.59353   0.59588   0.59665   0.59789   0.60049
 Alpha virt. eigenvalues --    0.60319   0.60610   0.60964   0.61051   0.61336
 Alpha virt. eigenvalues --    0.61841   0.62322   0.62513   0.63162   0.63792
 Alpha virt. eigenvalues --    0.64420   0.64841   0.65295   0.66719   0.67128
 Alpha virt. eigenvalues --    0.67791   0.68664   0.69579   0.70585   0.71517
 Alpha virt. eigenvalues --    0.73995   0.74376   0.75367   0.75926   0.77016
 Alpha virt. eigenvalues --    0.77853   0.78057   0.78547   0.80084   0.80694
 Alpha virt. eigenvalues --    0.81802   0.82228   0.82745   0.83109   0.83407
 Alpha virt. eigenvalues --    0.83529   0.84017   0.84117   0.84974   0.85479
 Alpha virt. eigenvalues --    0.86114   0.86719   0.88058   0.88950   0.90575
 Alpha virt. eigenvalues --    0.90912   0.91239   0.92029   0.92670   0.93612
 Alpha virt. eigenvalues --    0.94120   0.94975   0.95406   0.96042   0.96811
 Alpha virt. eigenvalues --    0.97465   0.99000   1.00217   1.00873   1.01191
 Alpha virt. eigenvalues --    1.01911   1.02368   1.03441   1.04548   1.05789
 Alpha virt. eigenvalues --    1.06428   1.07004   1.07948   1.08825   1.08988
 Alpha virt. eigenvalues --    1.10361   1.11690   1.12308   1.13082   1.14133
 Alpha virt. eigenvalues --    1.15170   1.15499   1.16584   1.17392   1.18158
 Alpha virt. eigenvalues --    1.18567   1.20650   1.21313   1.21942   1.23673
 Alpha virt. eigenvalues --    1.23914   1.25456   1.25734   1.26246   1.28116
 Alpha virt. eigenvalues --    1.28757   1.29428   1.30718   1.31642   1.32798
 Alpha virt. eigenvalues --    1.35363   1.36864   1.38669   1.40312   1.40982
 Alpha virt. eigenvalues --    1.41672   1.42159   1.42898   1.43114   1.44023
 Alpha virt. eigenvalues --    1.45123   1.45454   1.46468   1.47367   1.48271
 Alpha virt. eigenvalues --    1.48839   1.49128   1.49169   1.49779   1.50487
 Alpha virt. eigenvalues --    1.51235   1.51773   1.54432   1.55279   1.57200
 Alpha virt. eigenvalues --    1.61017   1.62450   1.64402   1.65195   1.67751
 Alpha virt. eigenvalues --    1.69356   1.71145   1.73522   1.73904   1.74727
 Alpha virt. eigenvalues --    1.75859   1.77480   1.77854   1.78577   1.79719
 Alpha virt. eigenvalues --    1.79979   1.80441   1.81638   1.82508   1.83318
 Alpha virt. eigenvalues --    1.84488   1.84826   1.85479   1.85778   1.86713
 Alpha virt. eigenvalues --    1.87735   1.89069   1.89833   1.90583   1.91297
 Alpha virt. eigenvalues --    1.91578   1.92453   1.93210   1.93427   1.94883
 Alpha virt. eigenvalues --    1.95492   1.96295   1.98388   1.99314   2.00152
 Alpha virt. eigenvalues --    2.01608   2.02250   2.04195   2.04752   2.05083
 Alpha virt. eigenvalues --    2.07029   2.07875   2.08246   2.09925   2.11579
 Alpha virt. eigenvalues --    2.12458   2.13165   2.14378   2.14761   2.15695
 Alpha virt. eigenvalues --    2.16825   2.17375   2.19395   2.19519   2.20988
 Alpha virt. eigenvalues --    2.21942   2.23580   2.23600   2.25858   2.26845
 Alpha virt. eigenvalues --    2.27193   2.28363   2.28685   2.29012   2.29507
 Alpha virt. eigenvalues --    2.30831   2.31288   2.31588   2.31793   2.33017
 Alpha virt. eigenvalues --    2.33223   2.34320   2.35038   2.39234   2.40729
 Alpha virt. eigenvalues --    2.41762   2.43298   2.44373   2.49514   2.51137
 Alpha virt. eigenvalues --    2.53211   2.56197   2.57594   2.58274   2.58709
 Alpha virt. eigenvalues --    2.59183   2.59524   2.61620   2.63635   2.64357
 Alpha virt. eigenvalues --    2.65063   2.66003   2.66595   2.67385   2.68820
 Alpha virt. eigenvalues --    2.69534   2.70330   2.71276   2.72314   2.74020
 Alpha virt. eigenvalues --    2.74591   2.75190   2.75900   2.76148   2.77498
 Alpha virt. eigenvalues --    2.78550   2.80243   2.81731   2.83675   2.84237
 Alpha virt. eigenvalues --    2.86201   2.88815   2.90332   2.96337   2.97024
 Alpha virt. eigenvalues --    2.97810   2.99937   3.01791   3.03054   3.06809
[...]
    20  C    0.005961   5.235485   0.422720  -0.033766   0.003152   0.012647
    21  C   -0.000175   0.422720   5.200047   0.209944  -0.105223  -0.056272
    22  C    0.000001  -0.033766   0.209944   4.746759   0.577858   0.230473
    23  O   -0.000000   0.003152  -0.105223   0.577858   8.083859  -0.103307
    24  C    0.000000   0.012647  -0.056272   0.230473  -0.103307   5.194513
    25  C    0.000000  -0.000442   0.014472  -0.048975   0.003242   0.473170
    26  C   -0.000000  -0.000000  -0.000292   0.007153   0.000860  -0.011284
    27  C   -0.000000   0.000001  -0.000032   0.000176  -0.000005  -0.049381
    28  C   -0.000000   0.000021  -0.000325   0.006718  -0.000078  -0.030406
    29  C   -0.000000   0.000067  -0.032927  -0.010244   0.003791   0.404567
    30  H   -0.000000   0.000000  -0.000000  -0.000000   0.000000   0.000000
    31  H   -0.000000  -0.000000   0.000000   0.000000  -0.000000   0.000000
    32  H    0.000000  -0.000000   0.000000  -0.000000  -0.000000  -0.000000
    33  H   -0.000000  -0.000040  -0.000332   0.000000   0.000000   0.000012
    34  H   -0.000002   0.000798   0.003824  -0.000126   0.000000   0.000020
    35  H    0.005801   0.006064   0.000632   0.000008   0.000000   0.000000
    36  H    0.006103   0.006173   0.000063   0.000002  -0.000009  -0.000000
    37  H    0.000845  -0.000001   0.000000  -0.000000  -0.000000  -0.000000
    38  H    0.004823  -0.000000   0.000000  -0.000000   0.000000   0.000000
    39  H   -0.038767   0.000001  -0.000000   0.000000  -0.000000  -0.000000
    40  H    0.350844  -0.000046   0.000002   0.000000  -0.000000  -0.000000
    41  H   -0.000026   0.347290  -0.045107  -0.009428   0.018885   0.001127
    42  H    0.000000  -0.000018   0.001082  -0.009089   0.016902  -0.042919
    43  H    0.000000  -0.000000   0.000002  -0.000147   0.000001   0.002575
    44  H    0.000000   0.000000   0.000000   0.000007  -0.000000   0.000464
              25         26         27         28         29         30
     1  O   -0.000006   0.000871   0.003297  -0.104419   0.003858   0.017398
     2  C    0.000150   0.007209  -0.048510   0.221107  -0.009883  -0.009619
     3  C   -0.000032  -0.000289   0.014257  -0.055820  -0.032563  -0.043928
     4  C    0.000000  -0.000000  -0.000409   0.012789  -0.000047   0.355594
     5  C    0.000000   0.000000  -0.000001  -0.000331   0.000057  -0.042322
     6  C   -0.000000   0.000000   0.000001  -0.000023  -0.000050   0.004412
     7  C    0.000001   0.000000   0.000018  -0.000103   0.002168   0.000267
     8  C   -0.000054   0.000019  -0.000241  -0.026075  -0.025823   0.005377
     9  N    0.008255  -0.000682   0.008255  -0.057714   0.255714  -0.000077
    10  C   -0.000169   0.000020  -0.000056   0.002804  -0.026277   0.000001
    11  C    0.000020   0.000000   0.000001  -0.000291   0.002264  -0.000000
    12  C    0.000000   0.000000  -0.000000   0.000002  -0.000040  -0.000000
    13  C   -0.000002   0.000000   0.000000   0.000000   0.000045   0.000000
    14  C    0.000000   0.000000  -0.000000  -0.000000  -0.000000   0.000000
    15  C   -0.000000   0.000000  -0.000000   0.000000   0.000000  -0.000000
    16  C   -0.000000  -0.000000  -0.000000   0.000000  -0.000000   0.000000
    17  C   -0.000000   0.000000  -0.000000  -0.000000   0.000000   0.000000
    18  C   -0.000000   0.000000   0.000000  -0.000000   0.000000  -0.000000
    19  C    0.000000  -0.000000  -0.000000  -0.000000  -0.000000  -0.000000
    20  C   -0.000442  -0.000000   0.000001   0.000021   0.000067   0.000000
    21  C    0.014472  -0.000292  -0.000032  -0.000325  -0.032927  -0.000000
    22  C   -0.048975   0.007153   0.000176   0.006718  -0.010244  -0.000000
    23  O    0.003242   0.000860  -0.000005  -0.000078   0.003791   0.000000
    24  C    0.473170  -0.011284  -0.049381  -0.030406   0.404567   0.000000
    25  C    5.053628   0.463434  -0.020536  -0.049541  -0.044872   0.000000
    26  C    0.463434   4.982440   0.463267  -0.011408  -0.046629  -0.000000
    27  C   -0.020536   0.463267   5.053659   0.473324  -0.044956  -0.000017
    28  C   -0.049541  -0.011408   0.473324   5.204682   0.404448   0.001103
    29  C   -0.044872  -0.046629  -0.044956   0.404448   4.923681  -0.000044
    30  H    0.000000  -0.000000  -0.000017   0.001103  -0.000044   0.545248
    31  H    0.000000   0.000000  -0.000000   0.000002  -0.000000  -0.004267
    32  H    0.000000  -0.000000   0.000000   0.000000   0.000001  -0.000164
    33  H    0.000000  -0.000000  -0.000000   0.000025  -0.000001   0.000015
    34  H   -0.000000  -0.000000   0.000000   0.000013   0.000005  -0.000000
    35  H    0.000000  -0.000000   0.000000  -0.000000   0.000000  -0.000000
    36  H    0.000000   0.000000  -0.000000  -0.000000   0.000000   0.000000
    37  H    0.000000   0.000000  -0.000000  -0.000000   0.000000   0.000000
    38  H    0.000000  -0.000000  -0.000000  -0.000000   0.000000   0.000000
    39  H    0.000000  -0.000000   0.000000  -0.000000  -0.000000  -0.000000
    40  H    0.000000   0.000000  -0.000000  -0.000000   0.000000   0.000000
    41  H   -0.000019  -0.000000   0.000000   0.000001  -0.000040  -0.000000
    42  H    0.355254  -0.041443   0.004020   0.000456   0.005381   0.000000
    43  H   -0.037017   0.362326  -0.037089   0.002588   0.001343  -0.000000
    44  H    0.004008  -0.041371   0.355154  -0.042885   0.005386  -0.000011
              31         32         33         34         35         36
     1  O    0.000001   0.000000   0.000000   0.000000  -0.000000  -0.000000
     2  C   -0.000135   0.000008  -0.000126  -0.000001  -0.000000   0.000000
     3  C    0.003162   0.000924   0.003951  -0.000345   0.000000  -0.000000
     4  C   -0.038050   0.004115   0.000620  -0.000034  -0.000000   0.000000
     5  C    0.362010  -0.039924   0.004077  -0.000037  -0.000000   0.000000
     6  C   -0.041771   0.359484  -0.035651   0.000782   0.000000  -0.000000
     7  C    0.004560  -0.038134   0.351341   0.006639   0.000002   0.000000
     8  C    0.000865   0.003417  -0.037875   0.004252  -0.000001   0.000000
     9  N    0.000005  -0.000106  -0.008085  -0.007823  -0.000100  -0.000000
    10  C   -0.000000  -0.000000   0.004477  -0.036746   0.003501  -0.000008
    11  C    0.000000   0.000006   0.006301   0.348825  -0.039532  -0.000004
    12  C   -0.000000   0.000000   0.000681  -0.031143   0.350255  -0.000016
    13  C    0.000000  -0.000000  -0.000033   0.002729  -0.038417  -0.010538
    14  C   -0.000000  -0.000000   0.000000  -0.000149  -0.008963  -0.041738
    15  C   -0.000000   0.000000  -0.000000   0.000001  -0.000013   0.352830
    16  C   -0.000000  -0.000000  -0.000000  -0.000000  -0.000007  -0.042717
    17  C   -0.000000  -0.000000  -0.000000   0.000000  -0.000005   0.004650
    18  C   -0.000000   0.000000   0.000000  -0.000000  -0.000022   0.000310
    19  C   -0.000000   0.000000  -0.000000  -0.000002   0.005801   0.006103
    20  C   -0.000000  -0.000000  -0.000040   0.000798   0.006064   0.006173
    21  C    0.000000   0.000000  -0.000332   0.003824   0.000632   0.000063
    22  C    0.000000  -0.000000   0.000000  -0.000126   0.000008   0.000002
    23  O   -0.000000  -0.000000   0.000000   0.000000   0.000000  -0.000009
    24  C    0.000000  -0.000000   0.000012   0.000020   0.000000  -0.000000
    25  C    0.000000   0.000000   0.000000  -0.000000   0.000000   0.000000
    26  C    0.000000  -0.000000  -0.000000  -0.000000  -0.000000   0.000000
    27  C   -0.000000   0.000000  -0.000000   0.000000   0.000000  -0.000000
    28  C    0.000002   0.000000   0.000025   0.000013  -0.000000  -0.000000
    29  C   -0.000000   0.000001  -0.000001   0.000005   0.000000   0.000000
    30  H   -0.004267  -0.000164   0.000015  -0.000000  -0.000000   0.000000
    31  H    0.576234  -0.004821  -0.000160   0.000001  -0.000000  -0.000000
    32  H   -0.004821   0.576438  -0.005294   0.000007   0.000000  -0.000000
    33  H   -0.000160  -0.005294   0.553551  -0.004099   0.000015  -0.000000
    34  H    0.000001   0.000007  -0.004099   0.551739  -0.005116   0.000000
    35  H   -0.000000   0.000000   0.000015  -0.005116   0.579288  -0.000001
    36  H   -0.000000  -0.000000  -0.000000   0.000000  -0.000001   0.587330
    37  H    0.000000   0.000000   0.000000   0.000000   0.000000  -0.005445
    38  H    0.000000  -0.000000  -0.000000  -0.000000  -0.000000  -0.000173
    39  H    0.000000  -0.000000  -0.000000   0.000000   0.000005   0.000017
    40  H   -0.000000   0.000000  -0.000000   0.000007   0.002894  -0.000168
    41  H    0.000000  -0.000000  -0.000000   0.000017  -0.000155   0.002272
    42  H    0.000000  -0.000000  -0.000000  -0.000000   0.000000   0.000000
    43  H   -0.000000   0.000000  -0.000000  -0.000000   0.000000   0.000000
    44  H   -0.000000  -0.000000  -0.000000  -0.000000  -0.000000   0.000000
              37         38         39         40         41         42
     1  O    0.000000   0.000000   0.000000   0.000000   0.000000  -0.000000
     2  C   -0.000000   0.000000   0.000000   0.000000  -0.000000   0.000007
     3  C   -0.000000  -0.000000   0.000000  -0.000000  -0.000000   0.000000
     4  C    0.000000   0.000000  -0.000000   0.000000   0.000000   0.000000
     5  C   -0.000000  -0.000000  -0.000000  -0.000000   0.000000  -0.000000
     6  C    0.000000   0.000000  -0.000000  -0.000000  -0.000000   0.000000
     7  C   -0.000000   0.000000  -0.000000   0.000000  -0.000000  -0.000000
     8  C   -0.000000  -0.000000   0.000000   0.000000   0.000001   0.000002
     9  N   -0.000000  -0.000000  -0.000000  -0.000000  -0.000076  -0.000075
    10  C   -0.000000  -0.000000  -0.000000  -0.000016   0.005386  -0.000044
    11  C   -0.000000   0.000000  -0.000000   0.000023  -0.000011   0.000000
    12  C    0.000001  -0.000000  -0.000001   0.004946   0.005854   0.000000
    13  C   -0.000187   0.000004  -0.000187  -0.010414  -0.040644  -0.000000
    14  C    0.003394   0.000609   0.003394  -0.042599  -0.007299  -0.000000
    15  C   -0.038156   0.004767   0.000844   0.006131   0.004726   0.000000
    16  C    0.357708  -0.042779   0.004543   0.000310  -0.000042   0.000000
    17  C   -0.042694   0.359500  -0.042517   0.004726  -0.000003  -0.000000
    18  C    0.004542  -0.042978   0.357382  -0.043479  -0.000007  -0.000000
    19  C    0.000845   0.004823  -0.038767   0.350844  -0.000026   0.000000
    20  C   -0.000001  -0.000000   0.000001  -0.000046   0.347290  -0.000018
    21  C    0.000000   0.000000  -0.000000   0.000002  -0.045107   0.001082
    22  C   -0.000000  -0.000000   0.000000   0.000000  -0.009428  -0.009089
    23  O   -0.000000   0.000000  -0.000000  -0.000000   0.018885   0.016902
    24  C   -0.000000   0.000000  -0.000000  -0.000000   0.001127  -0.042919
    25  C    0.000000   0.000000   0.000000   0.000000  -0.000019   0.355254
    26  C    0.000000  -0.000000  -0.000000   0.000000  -0.000000  -0.041443
    27  C   -0.000000  -0.000000   0.000000  -0.000000   0.000000   0.004020
    28  C   -0.000000  -0.000000  -0.000000  -0.000000   0.000001   0.000456
    29  C    0.000000   0.000000  -0.000000   0.000000  -0.000040   0.005381
    30  H    0.000000   0.000000  -0.000000   0.000000  -0.000000   0.000000
    31  H    0.000000   0.000000   0.000000  -0.000000   0.000000   0.000000
    32  H    0.000000  -0.000000  -0.000000   0.000000  -0.000000  -0.000000
    33  H    0.000000  -0.000000  -0.000000  -0.000000  -0.000000  -0.000000
    34  H    0.000000  -0.000000   0.000000   0.000007   0.000017  -0.000000
    35  H    0.000000  -0.000000   0.000005   0.002894  -0.000155   0.000000
    36  H   -0.005445  -0.000173   0.000017  -0.000168   0.002272   0.000000
    37  H    0.590068  -0.005439  -0.000186   0.000017   0.000004   0.000000
    38  H   -0.005439   0.594081  -0.005453  -0.000177  -0.000000  -0.000000
    39  H   -0.000186  -0.005453   0.593225  -0.005577   0.000000   0.000000
    40  H    0.000017  -0.000177  -0.005577   0.600772  -0.000000   0.000000
    41  H    0.000004  -0.000000   0.000000  -0.000000   0.544880  -0.000012
    42  H    0.000000  -0.000000   0.000000   0.000000  -0.000012   0.542311
    43  H    0.000000   0.000000   0.000000   0.000000  -0.000000  -0.003820
    44  H   -0.000000   0.000000   0.000000  -0.000000   0.000000  -0.000142
              43         44
     1  O    0.000001   0.016894
     2  C   -0.000145  -0.009004
     3  C    0.000002   0.001056
     4  C   -0.000000  -0.000017
     5  C    0.000000  -0.000000
     6  C    0.000000   0.000000
     7  C    0.000000   0.000000
     8  C   -0.000000  -0.000045
     9  N    0.000007  -0.000075
    10  C    0.000000   0.000002
    11  C    0.000000  -0.000000
    12  C    0.000000   0.000000
    13  C    0.000000  -0.000000
    14  C   -0.000000  -0.000000
    15  C   -0.000000   0.000000
    16  C   -0.000000   0.000000
    17  C    0.000000  -0.000000
    18  C   -0.000000  -0.000000
    19  C    0.000000   0.000000
    20  C   -0.000000   0.000000
    21  C    0.000002   0.000000
    22  C   -0.000147   0.000007
    23  O    0.000001  -0.000000
    24  C    0.002575   0.000464
    25  C   -0.037017   0.004008
    26  C    0.362326  -0.041371
    27  C   -0.037089   0.355154
    28  C    0.002588  -0.042885
    29  C    0.001343   0.005386
    30  H   -0.000000  -0.000011
    31  H   -0.000000  -0.000000
    32  H    0.000000  -0.000000
    33  H   -0.000000  -0.000000
    34  H   -0.000000  -0.000000
    35  H    0.000000  -0.000000
    36  H    0.000000   0.000000
    37  H    0.000000  -0.000000
    38  H    0.000000   0.000000
    39  H    0.000000   0.000000
    40  H    0.000000  -0.000000
    41  H   -0.000000   0.000000
    42  H   -0.003820  -0.000142
    43  H    0.567212  -0.003817
    44  H   -0.003817   0.542267
 Mulliken charges:
               1
     1  O   -0.505171
     2  C    0.380890
     3  C    0.034843
     4  C   -0.176752
     5  C   -0.129683
     6  C   -0.133004
     7  C   -0.179474
     8  C    0.283967
     9  N   -0.770289
    10  C    0.284647
    11  C   -0.182924
    12  C   -0.179005
    13  C    0.099799
    14  C    0.092104
    15  C   -0.171396
    16  C   -0.134207
    17  C   -0.125060
    18  C   -0.133775
    19  C   -0.175216
    20  C   -0.246835
    21  C    0.040360
    22  C    0.382612
    23  O   -0.505012
    24  C    0.048527
    25  C   -0.173970
    26  C   -0.134200
    27  C   -0.174195
    28  C    0.049336
    29  C    0.261619
    30  H    0.171033
    31  H    0.142365
    32  H    0.144042
    33  H    0.166630
    34  H    0.165960
    35  H    0.143864
    36  H    0.141068
    37  H    0.135528
    38  H    0.133216
    39  H    0.133276
    40  H    0.131804
    41  H    0.172426
    42  H    0.172146
    43  H    0.145977
    44  H    0.172127
 Sum of Mulliken charges =  -0.00000
 Mulliken charges with hydrogens summed into heavy atoms:
               1
     1  O   -0.505171
     2  C    0.380890
     3  C    0.034843
     4  C   -0.005718
     5  C    0.012681
     6  C    0.011038
     7  C   -0.012844
     8  C    0.283967
     9  N   -0.770289
    10  C    0.284647
    11  C   -0.016964
    12  C   -0.035141
    13  C    0.099799
    14  C    0.092104
    15  C   -0.030329
    16  C    0.001321
    17  C    0.008156
    18  C   -0.000499
    19  C   -0.043412
    20  C   -0.074409
    21  C    0.040360
    22  C    0.382612
    23  O   -0.505012
    24  C    0.048527
    25  C   -0.001824
    26  C    0.011778
    27  C   -0.002068
    28  C    0.049336
    29  C    0.261619
 Electronic spatial extent (au):  <R**2>=          12879.9187
 Charge=             -0.0000 electrons
 Dipole moment (field-independent basis, Debye):
    X=             -2.1560    Y=             -3.3072    Z=             -0.3575  Tot=              3.9641
 Quadrupole moment (field-independent basis, Debye-Ang):
   XX=           -162.2569   YY=           -152.1611   ZZ=           -164.6653
   XY=              5.2551   XZ=             -7.2570   YZ=              2.6202
 Traceless Quadrupole moment (field-independent basis, Debye-Ang):
   XX=             -2.5625   YY=              7.5333   ZZ=             -4.9709
   XY=              5.2551   XZ=             -7.2570   YZ=              2.6202
 Octapole moment (field-independent basis, Debye-Ang**2):
  XXX=           -200.5759  YYY=            -33.9399  ZZZ=              0.3040  XYY=             78.5950
  XXY=              1.6809  XXZ=            -30.9021  XZZ=            -18.4913  YZZ=             -5.8543
  YYZ=              5.7003  XYZ=             27.6621
 Hexadecapole moment (field-independent basis, Debye-Ang**3):
 XXXX=         -12767.8023 YYYY=          -3600.6246 ZZZZ=           -562.5091 XXXY=              6.4502
 XXXZ=           -178.1274 YYYX=             28.9954 YYYZ=            103.1128 ZZZX=             15.7742
 ZZZY=            -24.6127 XXYY=          -2616.7043 XXZZ=          -2329.7330 YYZZ=           -750.6594
 XXYZ=            -97.2667 YYXZ=            -36.3599 ZZXY=              9.5557
 N-N= 2.439075022252D+03 E-N=-7.674608480623D+03  KE= 1.193641347167D+03
 No NMR shielding tensors so no spin-rotation constants.
 Leave Link  601 at Mon Jan 19 14:16:34 2026, MaxMem=  8053063680 cpu:               3.0 elap:               0.2
 (Enter /appl/Gaussian16/AVX_revB01/g16/l9999.exe)
 1\1\GINC-CNODE12\FOpt\RB3LYP\6-31G(d)\C26H15N1O2\JUNHKIM\19-Jan-2026\0
 \\#P b3lyp/6-31g* opt SCF=XQC\\Gaussian input prepared by ASE\\0,1\O,-
 5.4890525198,-0.5939068538,1.5445105574\C,-4.4032546848,-0.3921545027,
 1.0042622386\C,-3.8031275433,0.9535962681,0.8947914642\C,-4.5947482348
 ,2.0724667133,1.199704961\C,-4.1323698761,3.357772721,0.9702289161\C,-
 2.8688807794,3.5293591686,0.3892862739\C,-2.0619963052,2.4375468767,0.
 094363997\C,-2.4983016657,1.1311854111,0.3854716726\N,-1.6896751185,-0
 .0027683183,0.1142718399\C,-0.2738254094,0.0596041176,0.0630595094\C,0
 .4567528339,1.0300451157,0.7731339117\C,1.8402589407,1.0750262475,0.68
 68121003\C,2.5714771941,0.1574058114,-0.0950948356\C,4.0501671829,0.23
 12338667,-0.1973891061\C,4.7019851656,-0.0932515063,-1.3992631986\C,6.
 0905530555,-0.0272149985,-1.5003432314\C,6.8578780759,0.3666536198,-0.
 4025348084\C,6.2240590117,0.6918891741,0.7980498593\C,4.8354605968,0.6
 244944184,0.8995880201\C,1.8437395614,-0.8410462646,-0.741073713\C,0.4
 469015227,-0.9154964771,-0.6587337144\C,-0.2340199867,-2.0960878918,-1
 .2317022585\O,0.3381736832,-2.9063454456,-1.957840854\C,-1.6266566234,
 -2.2762731678,-0.7774252167\C,-2.2714045851,-3.4970247404,-1.006580810
 2\C,-3.5737429239,-3.7186836919,-0.5683933803\C,-4.246461719,-2.698537
 6209,0.097907337\C,-3.6422843418,-1.4561337126,0.3209173644\C,-2.31463
 06558,-1.2347898203,-0.1125395934\H,-5.5865896926,1.8815519099,1.59670
 12888\H,-4.7511142019,4.2184520753,1.2052791314\H,-2.511393071,4.52654
 57926,0.1475239755\H,-1.105014086,2.5971160533,-0.3857283939\H,-0.0551
 758965,1.7428831263,1.406854553\H,2.3678966035,1.8502589919,1.23471708
 3\H,4.1128821053,-0.3781849938,-2.2664409082\H,6.5729185361,-0.2767574
 61,-2.4416232398\H,7.9402861316,0.418761019,-0.4815754646\H,6.81222403
 99,0.9900055555,1.6619420228\H,4.3575257435,0.8518681667,1.8485895698\
 H,2.3408189596,-1.6287128488,-1.2978763398\H,-1.7103071878,-4.26005577
 64,-1.5369522244\H,-4.0580988526,-4.6743180603,-0.7437444126\H,-5.2598
 319827,-2.8279720678,0.4648860567\\Version=ES64L-G16RevB.01\State=1-A\
 HF=-1205.0527882\RMSD=2.517e-09\RMSF=1.362e-05\Dipole=0.8226842,1.3103
 051,0.1964165\Quadrupole=-0.8491667,5.9852784,-5.1361117,1.8515569,5.9
 993705,1.2713911\PG=C01 [X(C26H15N1O2)]\\@


 EVERYTHING'S GOT A MORAL, IF ONLY YOU CAN FIND IT.

                                    -- LEWIS CARROL, ALICE IN WONDERLAND
 Job cpu time:       0 days  1 hours 26 minutes 15.5 seconds.
 Elapsed time:       0 days  0 hours  5 minutes 27.4 seconds.
 File lengths (MBytes):  RWF=    151 Int=      0 D2E=      0 Chk=     19 Scr=      2
 Normal termination of Gaussian 16 at Mon Jan 19 14:16:34 2026.
