
                                 *****************
                                 * O   R   C   A *
                                 *****************

           --- An Ab Initio, DFT and Semiempirical electronic structure package ---

                  #######################################################
                  #                        -***-                        #
                  #          Department of theory and spectroscopy      #
                  #               Directorship: Frank Neese             #
                  #        Max Planck Institute fuer Kohlenforschung    #
                  #                Kaiser Wilhelm Platz 1               #
                  #                 D-45470 Muelheim/Ruhr               #
                  #                      Germany                        #
                  #                                                     #
                  #                  All rights reserved                #
                  #                        -***-                        #
                  #######################################################


                         Program Version 4.2.1 -  RELEASE  -


 With contributions from (in alphabetic order):
   Daniel Aravena         : Magnetic Suceptibility
   Michael Atanasov       : Ab Initio Ligand Field Theory (pilot matlab implementation)
   Alexander A. Auer      : GIAO ZORA, VPT2
   Ute Becker             : Parallelization
   Giovanni Bistoni       : ED, misc. LED, open-shell LED, HFLD
   Martin Brehm           : Molecular dynamics
   Dmytro Bykov           : SCF Hessian
   Vijay G. Chilkuri      : MRCI spin determinant printing, contributions to CSF-ICE
   Dipayan Datta          : RHF DLPNO-CCSD density
   Achintya Kumar Dutta   : EOM-CC, STEOM-CC
   Dmitry Ganyushin       : Spin-Orbit,Spin-Spin,Magnetic field MRCI
   Miquel Garcia          : C-PCM Hessian, Gaussian charge scheme
   Yang Guo               : DLPNO-NEVPT2, CIM, IAO-localization
   Andreas Hansen         : Spin unrestricted coupled pair/coupled cluster methods
   Benjamin Helmich-Paris : CASSCF linear response (MC-RPA)
   Lee Huntington         : MR-EOM, pCC
   Robert Izsak           : Overlap fitted RIJCOSX, COSX-SCS-MP3, EOM
   Christian Kollmar      : KDIIS, OOCD, Brueckner-CCSD(T), CCSD density
   Simone Kossmann        : Meta GGA functionals, TD-DFT gradient, OOMP2, MP2 Hessian
   Martin Krupicka        : AUTO-CI
   Lucas Lang             : DCDCAS
   Dagmar Lenk            : GEPOL surface, SMD
   Dimitrios Liakos       : Extrapolation schemes; Compound Job, initial MDCI parallelization
   Dimitrios Manganas     : Further ROCIS development; embedding schemes
   Dimitrios Pantazis     : SARC Basis sets
   Taras Petrenko         : DFT Hessian,TD-DFT gradient, ASA, ECA, R-Raman, ABS, FL, XAS/XES, NRVS
   Peter Pinski           : DLPNO-MP2, DLPNO-MP2 Gradient
   Christoph Reimann      : Effective Core Potentials
   Marius Retegan         : Local ZFS, SOC
   Christoph Riplinger    : Optimizer, TS searches, QM/MM, DLPNO-CCSD(T), (RO)-DLPNO pert. Triples
   Tobias Risthaus        : Range-separated hybrids, TD-DFT gradient, RPA, STAB
   Michael Roemelt        : Original ROCIS implementation
   Masaaki Saitow         : Open-shell DLPNO-CCSD energy and density
   Barbara Sandhoefer     : DKH picture change effects
   Avijit Sen             : IP-ROCIS
   Kantharuban Sivalingam : CASSCF convergence, NEVPT2, FIC-MRCI
   Bernardo de Souza      : ESD, SOC TD-DFT
   Georgi Stoychev        : AutoAux, RI-MP2 NMR
   Willem Van den Heuvel  : Paramagnetic NMR
   Boris Wezisla          : Elementary symmetry handling
   Frank Wennmohs         : Technical directorship


 We gratefully acknowledge several colleagues who have allowed us to
 interface, adapt or use parts of their codes:
   Stefan Grimme, W. Hujo, H. Kruse,             : VdW corrections, initial TS optimization,
                  C. Bannwarth                     DFT functionals, gCP, sTDA/sTD-DF
   Ed Valeev, F. Pavosevic, A. Kumar             : LibInt (2-el integral package), F12 methods
   Garnet Chan, S. Sharma, J. Yang, R. Olivares  : DMRG
   Ulf Ekstrom                                   : XCFun DFT Library
   Mihaly Kallay                                 : mrcc  (arbitrary order and MRCC methods)
   Andreas Klamt, Michael Diedenhofen            : otool_cosmo (COSMO solvation model)
   Jiri Pittner, Ondrej Demel                    : Mk-CCSD
   Frank Weinhold                                : gennbo (NPA and NBO analysis)
   Christopher J. Cramer and Donald G. Truhlar   : smd solvation model
   Lars Goerigk                                  : TD-DFT with DH, B97 family of functionals
   V. Asgeirsson, H. Jonsson                     : NEB implementation
   FAccTs GmbH                                   : IRC, NEB, NEB-TS, Multilevel, MM, QM/MM, CI optimization
   S Lehtola, MJT Oliveira, MAL Marques          : LibXC Library


 Your calculation uses the libint2 library for the computation of 2-el integrals
 For citations please refer to: http://libint.valeyev.net

 Your ORCA version has been built with support for libXC version: 4.2.3
 For citations please refer to: https://tddft.org/programs/libxc/

 This ORCA versions uses:
   CBLAS   interface :  Fast vector & matrix operations
   LAPACKE interface :  Fast linear algebra routines
   SCALAPACK package :  Parallel linear algebra routines


Your calculation utilizes the semiempirical GFN2-xTB method
Please cite in your paper:
C. Bannwarth, Ehlert S., S. Grimme,  J. Chem. Theory Comput., 15, (2019), 1652.
   

----- Orbital basis set information -----
Your calculation utilizes the basis: def2-SVP
   F. Weigend and R. Ahlrichs, Phys. Chem. Chem. Phys. 7, 3297 (2005).

================================================================================
                                        WARNINGS
                       Please study these warnings very carefully!
================================================================================


WARNING: Geometry Optimization
  ===> : Switching off AutoStart
         For restart on a previous wavefunction, please use MOREAD

WARNING: Found dipole moment calculation with XTB calculation
  ===> : Switching off dipole moment calculation


WARNING: otool_xtb not available.
         Trying xtb instead   ... done.
  ===> : Now using xtb as program name.


INFO   : the flag for use of LIBINT has been found!

================================================================================
                                       INPUT FILE
================================================================================
NAME = pre_opt.inp
|  1> ! XTB2 Opt
|  2> * xyz 0 1
|  3> O     -5.580008   -0.510276    1.170668
|  4> C     -4.390994   -0.340848    0.777422
|  5> C     -3.811505    0.933314    0.813002
|  6> C     -4.577050    2.059515    1.178878
|  7> C     -4.062706    3.344408    1.021014
|  8> C     -2.802674    3.523204    0.459621
|  9> C     -2.022322    2.417101    0.120946
| 10> C     -2.464897    1.096956    0.390702
| 11> N     -1.675945   -0.017238    0.133691
| 12> C     -0.287851    0.027649    0.099979
| 13> C      0.454379    0.998151    0.815344
| 14> C      1.842331    1.075528    0.703965
| 15> C      2.547051    0.153337   -0.079054
| 16> C      4.023234    0.246930   -0.216588
| 17> C      4.639789    0.003058   -1.458515
| 18> C      6.029104    0.091184   -1.589141
| 19> C      6.817433    0.421364   -0.484622
| 20> C      6.218064    0.664062    0.753267
| 21> C      4.829073    0.578264    0.889571
| 22> C      1.841349   -0.893971   -0.688299
| 23> C      0.441632   -0.998145   -0.554585
| 24> C     -0.231499   -2.148624   -0.985796
| 25> O      0.395511   -3.064181   -1.590583
| 26> C     -1.589192   -2.307666   -0.682569
| 27> C     -2.244869   -3.527524   -0.934210
| 28> C     -3.578140   -3.699833   -0.575438
| 29> C     -4.284492   -2.657523    0.016737
| 30> C     -3.667471   -1.412148    0.239385
| 31> C     -2.302063   -1.228577   -0.099791
| 32> H     -5.591423    1.952760    1.543668
| 33> H     -4.664431    4.204801    1.284342
| 34> H     -2.433196    4.523221    0.271908
| 35> H     -1.087414    2.606548   -0.387583
| 36> H     -0.026856    1.687636    1.494747
| 37> H      2.363552    1.866924    1.227863
| 38> H      4.046119   -0.239530   -2.331074
| 39> H      6.494473   -0.093905   -2.548677
| 40> H      7.892751    0.488558   -0.587809
| 41> H      6.830527    0.915377    1.609585
| 42> H      4.388048    0.752403    1.862868
| 43> H      2.395164   -1.660870   -1.217032
| 44> H     -1.721427   -4.361739   -1.385375
| 45> H     -4.067633   -4.647988   -0.757875
| 46> H     -5.323525   -2.821661    0.275441
| 47> *
| 48> 
| 49>                          ****END OF INPUT****
================================================================================

                       *****************************
                       * Geometry Optimization Run *
                       *****************************

Geometry optimization settings:
Update method            Update   .... BFGS
Choice of coordinates    CoordSys .... Z-matrix Internals
Initial Hessian          InHess   .... Almoef's Model

Convergence Tolerances:
Energy Change            TolE     ....  5.0000e-06 Eh
Max. Gradient            TolMAXG  ....  3.0000e-04 Eh/bohr
RMS Gradient             TolRMSG  ....  1.0000e-04 Eh/bohr
Max. Displacement        TolMAXD  ....  4.0000e-03 bohr
RMS Displacement         TolRMSD  ....  2.0000e-03 bohr
Strict Convergence                ....  False
------------------------------------------------------------------------------
                        ORCA OPTIMIZATION COORDINATE SETUP
------------------------------------------------------------------------------

The optimization will be done in new redundant internal coordinates
Making redundant internal coordinates   ...  (new redundants) done
Evaluating the initial hessian          ...  (Almloef) done
Evaluating the coordinates              ...  done
Calculating the B-matrix                .... done
Calculating the G-matrix                .... done
Diagonalizing the G-matrix              .... done
Small eigenvalue found = 4.069e-03
Small eigenvalue found = 8.558e-03
Small eigenvalue found = 1.963e-02
Small eigenvalue found = 2.522e-02
The first mode is                       ....  132
The number of degrees of freedom        ....  126

    -----------------------------------------------------------------
                    Redundant Internal Coordinates


    -----------------------------------------------------------------
         Definition                    Initial Value    Approx d2E/dq
    -----------------------------------------------------------------
      1. B(C   1,O   0)                  1.2638         0.889764   
      2. B(C   2,C   1)                  1.4002         0.601816   
      3. B(C   3,C   2)                  1.4101         0.580421   
      4. B(C   4,C   3)                  1.3930         0.617971   
      5. B(C   5,C   4)                  1.3910         0.622563   
      6. B(C   6,C   5)                  1.3954         0.612546   
      7. B(C   7,C   2)                  1.4207         0.558102   
      8. B(C   7,C   6)                  1.4182         0.563213   
      9. B(N   8,C   7)                  1.3892         0.561206   
     10. B(C   9,N   8)                  1.3892         0.561185   
     11. B(C  10,C   9)                  1.4158         0.568271   
     12. B(C  11,C  10)                  1.3946         0.614413   
     13. B(C  12,C  11)                  1.4001         0.602114   
     14. B(C  13,C  12)                  1.4855         0.439877   
     15. B(C  14,C  13)                  1.4078         0.585175   
     16. B(C  15,C  14)                  1.3982         0.606206   
     17. B(C  16,C  15)                  1.3966         0.609868   
     18. B(C  17,C  16)                  1.3966         0.609811   
     19. B(C  18,C  17)                  1.3983         0.606039   
     20. B(C  18,C  13)                  1.4081         0.584603   
     21. B(C  19,C  12)                  1.4022         0.597503   
     22. B(C  20,C  19)                  1.4099         0.580658   
     23. B(C  20,C   9)                  1.4188         0.562172   
     24. B(C  21,C  20)                  1.4009         0.600170   
     25. B(O  22,C  21)                  1.2638         0.889698   
     26. B(C  23,C  21)                  1.4002         0.601809   
     27. B(C  24,C  23)                  1.4076         0.585715   
     28. B(C  25,C  24)                  1.3914         0.621571   
     29. B(C  26,C  25)                  1.3914         0.621574   
     30. B(C  27,C  26)                  1.4076         0.585748   
     31. B(C  27,C   1)                  1.4002         0.601744   
     32. B(C  28,C  27)                  1.4188         0.562008   
     33. B(C  28,C  23)                  1.4185         0.562612   
     34. B(C  28,N   8)                  1.3834         0.573267   
     35. B(H  29,C   3)                  1.0832         0.369147   
     36. B(H  30,C   4)                  1.0824         0.370232   
     37. B(H  31,C   5)                  1.0825         0.370173   
     38. B(H  32,C   6)                  1.0810         0.372215   
     39. B(H  33,C  10)                  1.0810         0.372202   
     40. B(H  34,C  11)                  1.0828         0.369757   
     41. B(H  35,C  14)                  1.0829         0.369629   
     42. B(H  36,C  15)                  1.0824         0.370330   
     43. B(H  37,C  16)                  1.0823         0.370370   
     44. B(H  38,C  17)                  1.0824         0.370320   
     45. B(H  39,C  18)                  1.0827         0.369953   
     46. B(H  40,C  19)                  1.0837         0.368533   
     47. B(H  41,C  24)                  1.0833         0.369125   
     48. B(H  42,C  25)                  1.0825         0.370110   
     49. B(H  43,C  26)                  1.0833         0.369123   
     50. A(O   0,C   1,C  27)          120.2084         0.457880   
     51. A(O   0,C   1,C   2)          120.2300         0.457890   
     52. A(C   2,C   1,C  27)          119.4809         0.429438   
     53. A(C   3,C   2,C   7)          119.9819         0.420955   
     54. A(C   1,C   2,C   3)          120.5772         0.426670   
     55. A(C   1,C   2,C   7)          119.3097         0.423686   
     56. A(C   2,C   3,C   4)          120.4537         0.428700   
     57. A(C   4,C   3,H  29)          118.3482         0.354198   
     58. A(C   2,C   3,H  29)          121.1358         0.350462   
     59. A(C   3,C   4,H  30)          120.0233         0.354375   
     60. A(C   3,C   4,C   5)          119.9195         0.434132   
     61. A(C   5,C   4,H  30)          119.9719         0.354820   
     62. A(C   4,C   5,C   6)          120.1759         0.433444   
     63. A(C   4,C   5,H  31)          119.8628         0.354810   
     64. A(C   6,C   5,H  31)          119.9552         0.353836   
     65. A(C   7,C   6,H  32)          121.4997         0.349174   
     66. A(C   5,C   6,H  32)          117.3173         0.354166   
     67. A(C   5,C   6,C   7)          121.1429         0.425721   
     68. A(C   2,C   7,N   8)          120.0592         0.415724   
     69. A(C   2,C   7,C   6)          117.3567         0.418701   
     70. A(C   6,C   7,N   8)          122.2858         0.416399   
     71. A(C   7,N   8,C   9)          123.0945         0.413440   
     72. A(C   9,N   8,C  28)          118.4512         0.415005   
     73. A(C   7,N   8,C  28)          118.4543         0.415008   
     74. A(C  10,C   9,C  20)          117.3340         0.419913   
     75. A(N   8,C   9,C  20)          120.1051         0.416259   
     76. A(N   8,C   9,C  10)          122.2559         0.417060   
     77. A(C   9,C  10,C  11)          121.2945         0.426636   
     78. A(C   9,C  10,H  33)          121.4253         0.349699   
     79. A(C  11,C  10,H  33)          117.2498         0.354347   
     80. A(C  10,C  11,H  34)          118.7504         0.353951   
     81. A(C  10,C  11,C  12)          120.6027         0.431086   
     82. A(C  12,C  11,H  34)          120.6450         0.352741   
     83. A(C  13,C  12,C  19)          120.4617         0.405615   
     84. A(C  11,C  12,C  19)          118.7936         0.428932   
     85. A(C  11,C  12,C  13)          120.6946         0.406166   
     86. A(C  12,C  13,C  14)          120.3944         0.404124   
     87. A(C  14,C  13,C  18)          118.8895         0.425079   
     88. A(C  12,C  13,C  18)          120.7160         0.404054   
     89. A(C  13,C  14,C  15)          120.4410         0.427851   
     90. A(C  15,C  14,H  35)          118.9193         0.353125   
     91. A(C  13,C  14,H  35)          120.6321         0.351023   
     92. A(C  16,C  15,H  36)          119.9239         0.353599   
     93. A(C  14,C  15,C  16)          120.1251         0.431035   
     94. A(C  14,C  15,H  36)          119.9507         0.353238   
     95. A(C  15,C  16,C  17)          119.9887         0.431495   
     96. A(C  17,C  16,H  37)          120.0058         0.353600   
     97. A(C  15,C  16,H  37)          120.0055         0.353605   
     98. A(C  16,C  17,C  18)          120.1352         0.431007   
     99. A(C  18,C  17,H  38)          119.9477         0.353220   
    100. A(C  16,C  17,H  38)          119.9168         0.353592   
    101. A(C  13,C  18,C  17)          120.4204         0.427754   
    102. A(C  13,C  18,H  39)          120.7267         0.351017   
    103. A(C  17,C  18,H  39)          118.8428         0.353161   
    104. A(C  12,C  19,C  20)          120.9057         0.426151   
    105. A(C  20,C  19,H  40)          120.0873         0.350388   
    106. A(C  12,C  19,H  40)          118.9053         0.352085   
    107. A(C   9,C  20,C  21)          119.2563         0.424029   
    108. A(C   9,C  20,C  19)          120.0514         0.421532   
    109. A(C  19,C  20,C  21)          120.5629         0.426492   
    110. A(O  22,C  21,C  23)          120.1603         0.457882   
    111. A(C  20,C  21,C  23)          119.5061         0.429236   
    112. A(C  20,C  21,O  22)          120.2549         0.457655   
    113. A(C  24,C  23,C  28)          119.9079         0.422244   
    114. A(C  21,C  23,C  28)          119.3305         0.424295   
    115. A(C  21,C  23,C  24)          120.7569         0.427363   
    116. A(C  25,C  24,H  41)          118.3621         0.354544   
    117. A(C  23,C  24,H  41)          121.1152         0.350997   
    118. A(C  23,C  24,C  25)          120.5027         0.429847   
    119. A(C  26,C  25,H  42)          119.8871         0.354704   
    120. A(C  24,C  25,H  42)          119.8869         0.354704   
    121. A(C  24,C  25,C  26)          120.2260         0.434462   
    122. A(C  25,C  26,C  27)          120.5022         0.429852   
    123. A(C  27,C  26,H  43)          121.1143         0.351000   
    124. A(C  25,C  26,H  43)          118.3632         0.354544   
    125. A(C  26,C  27,C  28)          119.9018         0.422168   
    126. A(C   1,C  27,C  28)          119.3490         0.424206   
    127. A(C   1,C  27,C  26)          120.7437         0.427359   
    128. A(C  23,C  28,C  27)          118.9081         0.419143   
    129. A(N   8,C  28,C  27)          120.5630         0.417819   
    130. A(N   8,C  28,C  23)          120.5289         0.417899   
    131. D(C   3,C   2,C   1,O   0)     -5.3825         0.024976   
    132. D(C   7,C   2,C   1,C  27)     -4.4790         0.024976   
    133. D(C   7,C   2,C   1,O   0)    178.7804         0.024976   
    134. D(C   3,C   2,C   1,C  27)    171.3581         0.024976   
    135. D(H  29,C   3,C   2,C   1)      6.8215         0.023147   
    136. D(C   4,C   3,C   2,C   7)      5.5476         0.023147   
    137. D(C   4,C   3,C   2,C   1)   -170.2615         0.023147   
    138. D(H  29,C   3,C   2,C   7)   -177.3694         0.023147   
    139. D(H  30,C   4,C   3,C   2)    178.6916         0.026415   
    140. D(H  30,C   4,C   3,H  29)      1.5285         0.026415   
    141. D(C   5,C   4,C   3,H  29)   -175.1118         0.026415   
    142. D(C   5,C   4,C   3,C   2)      2.0513         0.026415   
    143. D(C   6,C   5,C   4,C   3)     -3.4826         0.026833   
    144. D(H  31,C   5,C   4,C   3)    175.6202         0.026833   
    145. D(C   6,C   5,C   4,H  30)    179.8753         0.026833   
    146. D(H  31,C   5,C   4,H  30)     -1.0219         0.026833   
    147. D(H  32,C   6,C   5,H  31)     -4.1001         0.025926   
    148. D(C   7,C   6,C   5,H  31)    178.1680         0.025926   
    149. D(H  32,C   6,C   5,C   4)    175.0019         0.025926   
    150. D(C   7,C   6,C   5,C   4)     -2.7300         0.025926   
    151. D(N   8,C   7,C   6,H  32)      6.1112         0.021738   
    152. D(C   2,C   7,C   6,H  32)   -167.6127         0.021738   
    153. D(C   2,C   7,C   6,C   5)     10.0238         0.021738   
    154. D(N   8,C   7,C   2,C   3)    174.7961         0.021330   
    155. D(N   8,C   7,C   2,C   1)     -9.3416         0.021330   
    156. D(N   8,C   7,C   6,C   5)   -176.2522         0.021738   
    157. D(C   6,C   7,C   2,C   3)    -11.3335         0.021330   
    158. D(C   6,C   7,C   2,C   1)    164.5288         0.021330   
    159. D(C   9,N   8,C   7,C   6)     25.7069         0.025159   
    160. D(C  28,N   8,C   7,C   2)     19.2711         0.025159   
    161. D(C   9,N   8,C   7,C   2)   -160.7341         0.025159   
    162. D(C  28,N   8,C   7,C   6)   -154.2879         0.025159   
    163. D(C  20,C   9,N   8,C  28)     19.4522         0.025157   
    164. D(C  20,C   9,N   8,C   7)   -160.5425         0.025157   
    165. D(C  10,C   9,N   8,C  28)   -154.0345         0.025157   
    166. D(C  10,C   9,N   8,C   7)     25.9708         0.025157   
    167. D(H  33,C  10,C   9,C  20)   -167.6903         0.022147   
    168. D(H  33,C  10,C   9,N   8)      5.9675         0.022147   
    169. D(C  11,C  10,C   9,C  20)     10.2512         0.022147   
    170. D(C  11,C  10,C   9,N   8)   -176.0910         0.022147   
    171. D(H  34,C  11,C  10,H  33)     -5.2113         0.026094   
    172. D(H  34,C  11,C  10,C   9)    176.7646         0.026094   
    173. D(C  12,C  11,C  10,H  33)    175.2813         0.026094   
    174. D(C  12,C  11,C  10,C   9)     -2.7428         0.026094   
    175. D(C  19,C  12,C  11,H  34)    176.9557         0.025002   
    176. D(C  19,C  12,C  11,C  10)     -3.5463         0.025002   
    177. D(C  13,C  12,C  11,H  34)     -0.4815         0.025002   
    178. D(C  13,C  12,C  11,C  10)    179.0165         0.025002   
    179. D(C  18,C  13,C  12,C  19)   -137.4792         0.013203   
    180. D(C  18,C  13,C  12,C  11)     39.9151         0.013203   
    181. D(C  14,C  13,C  12,C  19)     42.4315         0.013203   
    182. D(C  14,C  13,C  12,C  11)   -140.1741         0.013203   
    183. D(H  35,C  14,C  13,C  18)   -179.0915         0.023546   
    184. D(H  35,C  14,C  13,C  12)      0.9961         0.023546   
    185. D(C  15,C  14,C  13,C  18)     -0.1025         0.023546   
    186. D(C  15,C  14,C  13,C  12)    179.9851         0.023546   
    187. D(H  36,C  15,C  14,H  35)     -0.7407         0.025362   
    188. D(H  36,C  15,C  14,C  13)   -179.7468         0.025362   
    189. D(C  16,C  15,C  14,H  35)    179.0767         0.025362   
    190. D(C  16,C  15,C  14,C  13)      0.0705         0.025362   
    191. D(H  37,C  16,C  15,C  14)    179.9692         0.025687   
    192. D(C  17,C  16,C  15,C  14)      0.0067         0.025687   
    193. D(C  17,C  16,C  15,H  36)    179.8242         0.025687   
    194. D(H  37,C  16,C  15,H  36)     -0.2134         0.025687   
    195. D(H  38,C  17,C  16,H  37)     -0.2454         0.025682   
    196. D(H  38,C  17,C  16,C  15)    179.7170         0.025682   
    197. D(C  18,C  17,C  16,H  37)    179.9871         0.025682   
    198. D(C  18,C  17,C  16,C  15)     -0.0504         0.025682   
    199. D(H  39,C  18,C  17,H  38)     -0.8955         0.025347   
    200. D(H  39,C  18,C  17,C  16)    178.8719         0.025347   
    201. D(C  13,C  18,C  17,H  38)   -179.7503         0.025347   
    202. D(C  13,C  18,C  17,C  16)      0.0171         0.025347   
    203. D(H  39,C  18,C  13,C  14)   -178.7742         0.023498   
    204. D(H  39,C  18,C  13,C  12)      1.1379         0.023498   
    205. D(C  17,C  18,C  13,C  14)      0.0588         0.023498   
    206. D(C  17,C  18,C  13,C  12)    179.9709         0.023498   
    207. D(H  40,C  19,C  12,C  13)      3.1296         0.024600   
    208. D(H  40,C  19,C  12,C  11)   -174.3137         0.024600   
    209. D(C  20,C  19,C  12,C  13)    179.4655         0.024600   
    210. D(C  20,C  19,C  12,C  11)      2.0221         0.024600   
    211. D(C  21,C  20,C  19,H  40)      6.2052         0.023167   
    212. D(C  21,C  20,C  19,C  12)   -170.0876         0.023167   
    213. D(C   9,C  20,C  19,H  40)   -177.9602         0.023167   
    214. D(C   9,C  20,C  19,C  12)      5.7470         0.023167   
    215. D(C  21,C  20,C   9,C  10)    164.2483         0.021655   
    216. D(C  21,C  20,C   9,N   8)     -9.5526         0.021655   
    217. D(C  19,C  20,C   9,C  10)    -11.6407         0.021655   
    218. D(C  19,C  20,C   9,N   8)    174.5585         0.021655   
    219. D(C  23,C  21,C  20,C  19)    171.4681         0.024832   
    220. D(C  23,C  21,C  20,C   9)     -4.3993         0.024832   
    221. D(O  22,C  21,C  20,C  19)     -5.3113         0.024832   
    222. D(O  22,C  21,C  20,C   9)    178.8212         0.024832   
    223. D(C  28,C  23,C  21,O  22)   -175.0023         0.024976   
    224. D(C  28,C  23,C  21,C  20)      8.2151         0.024976   
    225. D(C  24,C  23,C  21,O  22)      5.7907         0.024976   
    226. D(C  24,C  23,C  21,C  20)   -170.9919         0.024976   
    227. D(H  41,C  24,C  23,C  28)    179.5305         0.023592   
    228. D(H  41,C  24,C  23,C  21)     -1.2671         0.023592   
    229. D(C  25,C  24,C  23,C  28)     -2.1210         0.023592   
    230. D(C  25,C  24,C  23,C  21)    177.0815         0.023592   
    231. D(H  42,C  25,C  24,H  41)     -0.5359         0.026743   
    232. D(H  42,C  25,C  24,C  23)   -178.9292         0.026743   
    233. D(C  26,C  25,C  24,H  41)    179.4791         0.026743   
    234. D(C  26,C  25,C  24,C  23)      1.0858         0.026743   
    235. D(H  43,C  26,C  25,H  42)     -0.5444         0.026743   
    236. D(H  43,C  26,C  25,C  24)    179.4406         0.026743   
    237. D(C  27,C  26,C  25,H  42)   -178.9271         0.026743   
    238. D(C  27,C  26,C  25,C  24)      1.0579         0.026743   
    239. D(C  28,C  27,C  26,H  43)    179.5181         0.023594   
    240. D(C  28,C  27,C  26,C  25)     -2.1441         0.023594   
    241. D(C   1,C  27,C  26,H  43)     -1.3374         0.023594   
    242. D(C   1,C  27,C  26,C  25)    177.0003         0.023594   
    243. D(C  28,C  27,C   1,C   2)      8.1381         0.024970   
    244. D(C  28,C  27,C   1,O   0)   -175.1206         0.024970   
    245. D(C  26,C  27,C   1,C   2)   -171.0110         0.024970   
    246. D(C  26,C  27,C   1,O   0)      5.7303         0.024970   
    247. D(N   8,C  28,C  27,C  26)   -178.9198         0.021642   
    248. D(N   8,C  28,C  27,C   1)      1.9238         0.021642   
    249. D(C  27,C  28,C  23,C  24)      1.0153         0.021690   
    250. D(C  27,C  28,C  23,C  21)   -178.1986         0.021690   
    251. D(N   8,C  28,C  23,C  24)   -178.9765         0.021690   
    252. D(N   8,C  28,C  23,C  21)      1.8097         0.021690   
    253. D(C  27,C  28,N   8,C   9)    164.4314         0.026319   
    254. D(C  27,C  28,N   8,C   7)    -15.5737         0.026319   
    255. D(C  23,C  28,N   8,C   9)    -15.5770         0.026319   
    256. D(C  23,C  28,C  27,C   1)   -178.0679         0.021642   
    257. D(C  23,C  28,N   8,C   7)    164.4180         0.026319   
    258. D(C  23,C  28,C  27,C  26)      1.0885         0.021642   
    -----------------------------------------------------------------

Number of atoms                         .... 44
Number of degrees of freedom            .... 258

         *************************************************************
         *                GEOMETRY OPTIMIZATION CYCLE   1            *
         *************************************************************
      -----------------------------------------------------------      
     |                   =====================                   |     
     |                           x T B                           |     
     |                   =====================                   |     
     |                         S. Grimme                         |     
     |          Mulliken Center for Theoretical Chemistry        |     
     |                    University of Bonn                     |     
      -----------------------------------------------------------      

   * xtb version 6.2.3 (830e466) compiled by 'ehlert@majestix' on 2020-03-16

   xtb is free software: you can redistribute it and/or modify it under
   the terms of the GNU Lesser General Public License as published by
   the Free Software Foundation, either version 3 of the License, or
   (at your option) any later version.
   
   xtb is distributed in the hope that it will be useful,
   but WITHOUT ANY WARRANTY; without even the implied warranty of
   MERCHANTABILITY or FITNESS FOR A PARTICULAR PURPOSE.  See the
   GNU Lesser General Public License for more details.
   
   Cite this work as:
   * S. Grimme, C. Bannwarth, P. Shushkov, J. Chem. Theory Comput., 2017,
     13, 1989-2009. DOI: 10.1021/acs.jctc.7b00118
   * C. Bannwarth, S. Ehlert and S. Grimme., J. Chem. Theory Comput., 2019,
     15, 1652-1671. DOI: 10.1021/acs.jctc.8b01176
   * P. Pracht, E. Caldeweyher, S. Ehlert, S. Grimme, ChemRxiv, 2019, preprint.
     DOI: 10.26434/chemrxiv.8326202.v1
   
   for DFT-D4:
   * E. Caldeweyher, C. Bannwarth and S. Grimme, J. Chem. Phys., 2017,
     147, 034112. DOI: 10.1063/1.4993215
   * E. Caldeweyher, S. Ehlert, A. Hansen, H. Neugebauer, S. Spicher,
     C. Bannwarth and S. Grimme, J. Chem. Phys., 2019, 150, 154122.
     DOI: 10.1063/1.5090222
   
   for sTDA-xTB:
   * S. Grimme and C. Bannwarth, J. Chem. Phys., 2016, 145, 054103.
     DOI: 10.1063/1.4959605
   
   in the mass-spec context:
   * V. Asgeirsson, C. Bauer and S. Grimme, Chem. Sci., 2017, 8, 4879.
     DOI: 10.1039/c7sc00601b
   
   for metadynamics refer to:
   * S. Grimme, J. Chem. Theory Comput., 2019, 155, 2847-2862
     DOI: 10.1021/acs.jctc.9b00143
   
   with help from (in alphabetical order)
   C. Bannwarth, F. Bohle, G. Brandenburg, E. Caldeweyher, M. Checinski,
   S. Dohm, S. Ehlert, S. Ehrlich, F. März, H. Neugebauer, J. Pisarek,
   P. Pracht, P. Shushkov, and S. Spicher.
   
 * started run on 2026/01/19 at 14:10:38.254     

           -------------------------------------------------
          |                Calculation Setup                |
           -------------------------------------------------

          program call               : /appl/orca_4.2.1/orca_4_2_1_linux_x86-64_openmpi314/xtb pre_opt_XTB.xyz --grad -c 0 -u 0 -P 1 --namespace pre_opt
          hostname                   : cnode12
          calculation namespace      : pre_opt
          coordinate file            : pre_opt_XTB.xyz
          omp threads                :                     1
          number of atoms            :                    44
          number of electrons        :                   136
          charge                     :                     0
          spin                       :                   0.0
          first test random number   :      0.13295637969919

########################################################################
[WARNING] Please study the warnings concerning your input carefully
-2- prog_main: XTBPATH is not set, using XTBHOME instead
-1- prog_main: XTBHOME is not set, using HOME instead
########################################################################
           ------------------------------------------------- 
          |                 G F N 2 - x T B                 |
          | Geometry, Frequencies, Noncovalent interactions |
          |            JCTC 2019 parametrisation            |
           ------------------------------------------------- 
             k(s)              :                1.8500
             k(p)              :                2.2300
             k(d)              :                2.2300
             k(f)              :                2.0000
             kEN (H0ij)        :               -2.0000
             D4 a1             :                0.5200
             D4 a2             :                5.0000
             D4 s6             :                1.0000
             D4 s8             :                2.7000
             D4 s9             :                5.0000
             alphaj            :                2.0000

  Z AO/shell   Hii/eV     exponent
  1     Wed Apr 25 08:07:45 CEST 2018   EN: 2.200 GM2: 0.406  GM3: 0.0800  RAES: 1.40
     1s    -10.707211    1.230000
  6     Wed Apr 25 08:07:45 CEST 2018   EN: 2.550 GM2: 0.538  GM3: 0.1500  RAES: 3.00
     2s    -13.970922    2.096432
     2p    -10.063292    1.800000
  7     Wed Apr 25 08:07:45 CEST 2018   EN: 3.040 GM2: 0.461  GM3:-0.0640  RAES: 1.90
     2s    -16.686243    2.339881
     2p    -12.523956    2.014332
  8     Wed Apr 25 08:07:45 CEST 2018   EN: 3.440 GM2: 0.452  GM3:-0.0517  RAES: 1.80
     2s    -20.229985    2.439742
     2p    -15.503117    2.137023

           ------------------------------------------------- 
          |        Self-Consistent Charge Iterations        |
           ------------------------------------------------- 

          ...................................................
          :                      SETUP                      :
          :.................................................:
          :  # basis functions                 131          :
          :  # atomic orbitals                 131          :
          :  # shells                           73          :
          :  # electrons                       136          :
          :  max. iterations                   250          :
          :  Hamiltonian                  GFN2-xTB          :
          :  restarted?                      false          :
          :  GBSA solvation                  false          :
          :  PC potential                    false          :
          :  electronic temp.          300.0000000     K    :
          :  accuracy                    1.0000000          :
          :  -> integral cutoff          0.2500000E+02      :
          :  -> integral neglect         0.1000000E-07      :
          :  -> SCF convergence          0.1000000E-05 Eh   :
          :  -> wf. convergence          0.1000000E-03 e    :
          :  Broyden damping             0.4000000          :
          ...................................................

 iter      E             dE          RMSdq      gap      omega  full diag
   1    -75.4747578 -0.754748E+02  0.498E+00    1.68       0.0  T
   2    -75.5913657 -0.116608E+00  0.290E+00    1.61       1.0  T
   3    -75.5701736  0.211920E-01  0.172E+00    1.87       1.0  T
   4    -75.6175552 -0.473815E-01  0.524E-01    1.93       1.0  T
   5    -75.6313709 -0.138157E-01  0.131E-01    1.93       1.0  T
   6    -75.6320328 -0.661920E-03  0.606E-02    1.95       1.0  T
   7    -75.6321189 -0.861055E-04  0.246E-02    1.94       1.0  T
   8    -75.6321227 -0.382856E-05  0.125E-02    1.94       1.2  T
   9    -75.6321242 -0.151203E-05  0.315E-03    1.94       4.8  T
  10    -75.6321243 -0.120915E-06  0.184E-03    1.94       8.2  T
  11    -75.6321245 -0.115014E-06  0.716E-04    1.94      21.1  T
  12    -75.6321245 -0.224894E-08  0.328E-04    1.94      45.9  T

   *** convergence criteria satisfied after 12 iterations ***

         #    Occupation            Energy/Eh            Energy/eV
      -------------------------------------------------------------
         1        2.0000           -0.7081974             -19.2710
       ...           ...                  ...                  ...
        62        2.0000           -0.4206749             -11.4471
        63        2.0000           -0.4199987             -11.4287
        64        2.0000           -0.4100994             -11.1594
        65        2.0000           -0.4052807             -11.0282
        66        2.0000           -0.3887861             -10.5794
        67        2.0000           -0.3845587             -10.4644
        68        2.0000           -0.3837467             -10.4423 (HOMO)
        69                         -0.3123345              -8.4991 (LUMO)
        70                         -0.2861800              -7.7874
        71                         -0.2678677              -7.2890
        72                         -0.2593273              -7.0567
        73                         -0.2522410              -6.8638
       ...                                ...                  ...
       131                          0.6940007              18.8847
      -------------------------------------------------------------
                  HL-Gap            0.0714122 Eh            1.9432 eV
             Fermi-level           -0.3480406 Eh           -9.4707 eV

 SCC (total)                   0 d,  0 h,  0 min,  0.112 sec
 SCC setup                      ...        0 min,  0.001 sec (  0.514%)
 Dispersion                     ...        0 min,  0.001 sec (  0.898%)
 integral evaluation            ...        0 min,  0.044 sec ( 39.154%)
 zeroth order Hamiltonian       ...        0 min,  0.000 sec (  0.372%)
 iterations                     ...        0 min,  0.032 sec ( 28.712%)
 molecular gradient             ...        0 min,  0.034 sec ( 30.116%)
 printout                       ...        0 min,  0.000 sec (  0.198%)

         :::::::::::::::::::::::::::::::::::::::::::::::::::::
         ::                     SUMMARY                     ::
         :::::::::::::::::::::::::::::::::::::::::::::::::::::
         :: total energy             -74.385044297676 Eh    ::
         :: gradient norm              0.179395826581 Eh/a0 ::
         :: HOMO-LUMO gap              1.943224543402 eV    ::
         ::.................................................::
         :: SCC energy               -75.632124456212 Eh    ::
         :: -> isotropic ES            0.071860421948 Eh    ::
         :: -> anisotropic ES          0.001493018021 Eh    ::
         :: -> anisotropic XC          0.034830659123 Eh    ::
         :: -> dispersion             -0.059227648398 Eh    ::
         :: repulsion energy           1.247358152891 Eh    ::
         :: add. restraining           0.000000000000 Eh    ::
         :::::::::::::::::::::::::::::::::::::::::::::::::::::

           -------------------------------------------------
          |                Property Printout                |
           -------------------------------------------------

    * Orbital Energies and Occupations

         #    Occupation            Energy/Eh            Energy/eV
      -------------------------------------------------------------
         1        2.0000           -0.7081974             -19.2710
       ...           ...                  ...                  ...
        56        2.0000           -0.4426090             -12.0440
        57        2.0000           -0.4372557             -11.8983
        58        2.0000           -0.4321812             -11.7602
        59        2.0000           -0.4311362             -11.7318
        60        2.0000           -0.4279811             -11.6460
        61        2.0000           -0.4271685             -11.6238
        62        2.0000           -0.4206749             -11.4471
        63        2.0000           -0.4199987             -11.4287
        64        2.0000           -0.4100994             -11.1594
        65        2.0000           -0.4052807             -11.0282
        66        2.0000           -0.3887861             -10.5794
        67        2.0000           -0.3845587             -10.4644
        68        2.0000           -0.3837467             -10.4423 (HOMO)
        69                         -0.3123345              -8.4991 (LUMO)
        70                         -0.2861800              -7.7874
        71                         -0.2678677              -7.2890
        72                         -0.2593273              -7.0567
        73                         -0.2522410              -6.8638
        74                         -0.2356598              -6.4126
        75                         -0.2340722              -6.3694
        76                         -0.2181843              -5.9371
        77                         -0.1966626              -5.3515
        78                         -0.1684911              -4.5849
        79                         -0.1301518              -3.5416
       ...                                ...                  ...
       131                          0.6940007              18.8847
      -------------------------------------------------------------
                  HL-Gap            0.0714122 Eh            1.9432 eV
             Fermi-level           -0.3480406 Eh           -9.4707 eV

     #   Z        covCN         q      C6AA      α(0)
     1   8 O      0.861    -0.437    22.440     6.351
     2   6 C      2.856     0.212    23.518     7.949
     3   6 C      2.982    -0.017    28.423     8.745
     4   6 C      2.918    -0.015    28.389     8.737
     5   6 C      2.910    -0.033    28.818     8.803
     6   6 C      2.909    -0.024    28.595     8.768
     7   6 C      2.913    -0.047    29.163     8.855
     8   6 C      2.926     0.057    26.718     8.477
     9   7 N      2.748    -0.006    21.384     6.868
    10   6 C      2.927     0.054    26.785     8.487
    11   6 C      2.912    -0.049    29.207     8.862
    12   6 C      2.912    -0.029    28.725     8.789
    13   6 C      2.965     0.010    27.786     8.646
    14   6 C      2.965     0.010    27.801     8.649
    15   6 C      2.913    -0.032    28.806     8.801
    16   6 C      2.909    -0.029    28.714     8.787
    17   6 C      2.911    -0.029    28.730     8.789
    18   6 C      2.909    -0.030    28.738     8.790
    19   6 C      2.913    -0.033    28.829     8.805
    20   6 C      2.921    -0.022    28.553     8.763
    21   6 C      2.981    -0.019    28.467     8.752
    22   6 C      2.856     0.213    23.513     7.948
    23   8 O      0.861    -0.437    22.442     6.352
    24   6 C      2.980    -0.019    28.471     8.753
    25   6 C      2.918    -0.009    28.236     8.714
    26   6 C      2.908    -0.034    28.853     8.808
    27   6 C      2.918    -0.009    28.237     8.714
    28   6 C      2.980    -0.019    28.473     8.753
    29   6 C      2.950     0.053    26.817     8.494
    30   1 H      0.925     0.076     2.023     2.224
    31   1 H      0.925     0.046     2.368     2.406
    32   1 H      0.925     0.047     2.361     2.403
    33   1 H      0.926     0.046     2.372     2.408
    34   1 H      0.926     0.045     2.383     2.414
    35   1 H      0.925     0.048     2.346     2.395
    36   1 H      0.925     0.038     2.471     2.458
    37   1 H      0.925     0.036     2.505     2.475
    38   1 H      0.925     0.034     2.531     2.488
    39   1 H      0.925     0.034     2.533     2.489
    40   1 H      0.925     0.032     2.552     2.498
    41   1 H      0.925     0.077     2.014     2.219
    42   1 H      0.925     0.079     1.989     2.206
    43   1 H      0.925     0.052     2.295     2.369
    44   1 H      0.925     0.079     1.988     2.205

 Mol. C6AA /au·bohr⁶  :      30342.002281
 Mol. C8AA /au·bohr⁸  :     778035.362468
 Mol. α(0) /au        :        280.664699


Wiberg/Mayer (AO) data.
largest (>0.10) Wiberg bond orders for each atom
          total WBO             WBO to atom ...
     1  O   1.944        C    2 1.626
     2  C   3.960        O    1 1.626    C    3 1.114    C   28 1.114
     3  C   3.981        C    4 1.348    C    8 1.291    C    2 1.114
     4  C   3.981        C    5 1.472    C    3 1.348    H   30 0.964    C    7 0.111
     5  C   3.979        C    4 1.472    C    6 1.403    H   31 0.970
     6  C   3.985        C    7 1.466    C    5 1.403    H   32 0.970
     7  C   3.981        C    6 1.466    C    8 1.350    H   33 0.965    C    4 0.111
     8  C   3.959        C    7 1.350    C    3 1.291    N    9 1.099
     9  N   3.631        C   29 1.142    C    8 1.099    C   10 1.096
    10  C   3.955        C   11 1.347    C   21 1.288    N    9 1.096
    11  C   3.980        C   12 1.475    C   10 1.347    H   34 0.965    C   20 0.105
    12  C   3.985        C   11 1.475    C   13 1.356    H   35 0.967
    13  C   3.976        C   20 1.418    C   12 1.356    C   14 1.044
    14  C   3.987        C   19 1.389    C   15 1.389    C   13 1.044    C   17 0.104
    15  C   3.987        C   16 1.449    C   14 1.389    H   36 0.969    C   18 0.109
    16  C   3.991        C   15 1.449    C   17 1.435    H   37 0.971    C   19 0.109
    17  C   3.986        C   18 1.435    C   16 1.435    H   38 0.972    C   14 0.104
    18  C   3.991        C   19 1.449    C   17 1.435    H   39 0.971    C   15 0.109
    19  C   3.988        C   18 1.449    C   14 1.389    H   40 0.970    C   16 0.109
    20  C   3.980        C   13 1.418    C   21 1.357    H   41 0.961    C   11 0.105
    21  C   3.981        C   20 1.357    C   10 1.288    C   22 1.113
    22  C   3.959        O   23 1.627    C   24 1.114    C   21 1.113
    23  O   1.944        C   22 1.627
    24  C   3.985        C   25 1.360    C   29 1.281    C   22 1.114
    25  C   3.978        C   26 1.443    C   24 1.360    H   42 0.964
    26  C   3.981        C   27 1.444    C   25 1.443    H   43 0.969
    27  C   3.978        C   26 1.444    C   28 1.360    H   44 0.964
    28  C   3.986        C   27 1.360    C   29 1.281    C    2 1.114
    29  C   3.962        C   24 1.281    C   28 1.281    N    9 1.142
    30  H   0.994        C    4 0.964
    31  H   0.997        C    5 0.970
    32  H   0.997        C    6 0.970
    33  H   0.997        C    7 0.965
    34  H   0.997        C   11 0.965
    35  H   0.997        C   12 0.967
    36  H   0.999        C   15 0.969
    37  H   0.998        C   16 0.971
    38  H   0.998        C   17 0.972
    39  H   0.998        C   18 0.971
    40  H   0.999        C   19 0.970
    41  H   0.994        C   20 0.961
    42  H   0.993        C   25 0.964
    43  H   0.996        C   26 0.969
    44  H   0.993        C   27 0.964

molecular dipole:
                 x           y           z       tot (Debye)
 q only:        1.044       1.514       0.234
   full:        1.114       1.698       0.278       5.210
molecular quadrupole (traceless):
                xx          xy          yy          xz          yz          zz
 q only:       -9.310       1.976       8.705       8.766      -1.659       0.606
  q+dip:       -8.059       3.506       9.081       8.372       1.706      -1.022
   full:      -12.446       2.338       8.720      11.442      -2.686       3.726


           -------------------------------------------------
          | TOTAL ENERGY              -74.385044297676 Eh   |
          | GRADIENT NORM               0.179395826581 Eh/α |
          | HOMO-LUMO GAP               1.943224543402 eV   |
           -------------------------------------------------

------------------------------------------------------------------------
 * finished run on 2026/01/19 at 14:10:38.584     
------------------------------------------------------------------------
 total:
 * wall-time:     0 d,  0 h,  0 min,  0.330 sec
 *  cpu-time:     0 d,  0 h,  0 min,  0.165 sec
 * ratio c/w:     0.501 speedup
 SCF:
 * wall-time:     0 d,  0 h,  0 min,  0.113 sec
 *  cpu-time:     0 d,  0 h,  0 min,  0.113 sec
 * ratio c/w:     0.999 speedup


-------------------------   --------------------
FINAL SINGLE POINT ENERGY         0.000000000000
-------------------------   --------------------

------------------------------------------------------------------------------
                         ORCA GEOMETRY RELAXATION STEP
------------------------------------------------------------------------------

Reading the OPT-File                    .... done
Getting information on internals        .... done
Copying old internal coords+grads       .... done
Making the new internal coordinates     .... (new redundants).... done
Validating the new internal coordinates .... (new redundants).... done
Calculating the B-matrix                .... done
Calculating the G,G- and P matrices     .... done
Transforming gradient to internals      .... done
Projecting the internal gradient        .... done
Number of atoms                         ....  44
Number of internal coordinates          .... 258
Current Energy                          ....     0.000000000 Eh
Current gradient norm                   ....     0.179395827 Eh/bohr
Maximum allowed component of the step   ....  0.300
Current trust radius                    ....  0.300
Evaluating the initial hessian          ....  (Almloef) done
Projecting the Hessian                  .... done
Forming the augmented Hessian           .... done
Diagonalizing the augmented Hessian     .... done
Last element of RFO vector              ....  0.968824739
Lowest eigenvalues of augmented Hessian:
 -0.026364169  0.013209524  0.020400120  0.021176377  0.023108843
Length of the computed step             ....  0.255719213
The final length of the internal step   ....  0.255719213
Converting the step to cartesian space:
 Initial RMS(Int)=    0.0159203828
Transforming coordinates:
 Iter   0:  RMS(Cart)=    0.0802106560 RMS(Int)=    0.3908067240
 Iter   1:  RMS(Cart)=    0.0014506793 RMS(Int)=    0.0004676486
 Iter   2:  RMS(Cart)=    0.0000745929 RMS(Int)=    0.0000153426
 Iter   3:  RMS(Cart)=    0.0000023438 RMS(Int)=    0.0000011012
 Iter   4:  RMS(Cart)=    0.0000001026 RMS(Int)=    0.0000000368
 Iter   5:  RMS(Cart)=    0.0000000048 RMS(Int)=    0.0000000025
done
Storing new coordinates                 .... done

                                .--------------------.
          ----------------------|Geometry convergence|-------------------------
          Item                value                   Tolerance       Converged
          ---------------------------------------------------------------------
          RMS gradient        0.0077160432            0.0001000000      NO
          MAX gradient        0.0429572627            0.0003000000      NO
          RMS step            0.0159203828            0.0020000000      NO
          MAX step            0.0706029174            0.0040000000      NO
          ........................................................
          Max(Bonds)      0.0374      Max(Angles)    2.02
          Max(Dihed)        2.30      Max(Improp)    0.00
          ---------------------------------------------------------------------

The optimization has not yet converged - more geometry cycles are needed


    ---------------------------------------------------------------------------
                         Redundant Internal Coordinates
                            (Angstroem and degrees)

        Definition                    Value    dE/dq     Step     New-Value
    ----------------------------------------------------------------------------
     1. B(C   1,O   0)                1.2638  0.029015 -0.0168    1.2470   
     2. B(C   2,C   1)                1.4002 -0.041588  0.0363    1.4365   
     3. B(C   3,C   2)                1.4101  0.013404 -0.0116    1.3984   
     4. B(C   4,C   3)                1.3930  0.015191 -0.0124    1.3806   
     5. B(C   5,C   4)                1.3910  0.002694 -0.0021    1.3888   
     6. B(C   6,C   5)                1.3954  0.015309 -0.0127    1.3827   
     7. B(C   7,C   2)                1.4207  0.009343 -0.0084    1.4123   
     8. B(C   7,C   6)                1.4182  0.019360 -0.0175    1.4007   
     9. B(N   8,C   7)                1.3892 -0.001276 -0.0001    1.3891   
    10. B(C   9,N   8)                1.3892 -0.001993  0.0006    1.3898   
    11. B(C  10,C   9)                1.4158  0.017704 -0.0158    1.4000   
    12. B(C  11,C  10)                1.3946  0.015464 -0.0128    1.3817   
    13. B(C  12,C  11)                1.4001  0.004752 -0.0040    1.3961   
    14. B(C  13,C  12)                1.4855  0.011757 -0.0133    1.4722   
    15. B(C  14,C  13)                1.4078  0.015953 -0.0139    1.3940   
    16. B(C  15,C  14)                1.3982  0.015365 -0.0129    1.3854   
    17. B(C  16,C  15)                1.3966  0.012445 -0.0103    1.3863   
    18. B(C  17,C  16)                1.3966  0.012536 -0.0104    1.3862   
    19. B(C  18,C  17)                1.3983  0.015341 -0.0128    1.3855   
    20. B(C  18,C  13)                1.4081  0.016215 -0.0141    1.3940   
    21. B(C  19,C  12)                1.4022  0.016582 -0.0140    1.3881   
    22. B(C  20,C  19)                1.4099  0.014901 -0.0129    1.3970   
    23. B(C  20,C   9)                1.4188  0.008276 -0.0073    1.4114   
    24. B(C  21,C  20)                1.4009 -0.040845  0.0358    1.4367   
    25. B(O  22,C  21)                1.2638  0.029113 -0.0168    1.2470   
    26. B(C  23,C  21)                1.4002 -0.042957  0.0374    1.4376   
    27. B(C  24,C  23)                1.4076  0.013253 -0.0115    1.3961   
    28. B(C  25,C  24)                1.3914  0.009473 -0.0076    1.3838   
    29. B(C  26,C  25)                1.3914  0.009463 -0.0076    1.3839   
    30. B(C  27,C  26)                1.4076  0.013183 -0.0114    1.3962   
    31. B(C  27,C   1)                1.4002 -0.042847  0.0373    1.4375   
    32. B(C  28,C  27)                1.4188  0.004917 -0.0047    1.4141   
    33. B(C  28,C  23)                1.4185  0.004438 -0.0043    1.4142   
    34. B(C  28,N   8)                1.3834 -0.002287 -0.0007    1.3827   
    35. B(H  29,C   3)                1.0832  0.003968 -0.0053    1.0779   
    36. B(H  30,C   4)                1.0824  0.002478 -0.0033    1.0791   
    37. B(H  31,C   5)                1.0825  0.002704 -0.0036    1.0789   
    38. B(H  32,C   6)                1.0810  0.001273 -0.0017    1.0793   
    39. B(H  33,C  10)                1.0810  0.001284 -0.0017    1.0793   
    40. B(H  34,C  11)                1.0828  0.003016 -0.0040    1.0788   
    41. B(H  35,C  14)                1.0829  0.002570 -0.0034    1.0795   
    42. B(H  36,C  15)                1.0824  0.002275 -0.0030    1.0793   
    43. B(H  37,C  16)                1.0823  0.002035 -0.0027    1.0796   
    44. B(H  38,C  17)                1.0824  0.002178 -0.0029    1.0795   
    45. B(H  39,C  18)                1.0827  0.002272 -0.0030    1.0796   
    46. B(H  40,C  19)                1.0837  0.004124 -0.0055    1.0782   
    47. B(H  41,C  24)                1.0833  0.003573 -0.0048    1.0785   
    48. B(H  42,C  25)                1.0825  0.002704 -0.0036    1.0789   
    49. B(H  43,C  26)                1.0833  0.003583 -0.0048    1.0785   
    50. A(O   0,C   1,C  27)          120.21 -0.008934    1.00    121.20   
    51. A(O   0,C   1,C   2)          120.23 -0.008991    1.00    121.23   
    52. A(C   2,C   1,C  27)          119.48  0.017897   -2.01    117.47   
    53. A(C   3,C   2,C   7)          119.98  0.001941   -0.26    119.72   
    54. A(C   1,C   2,C   3)          120.58 -0.000357   -0.01    120.56   
    55. A(C   1,C   2,C   7)          119.31 -0.001614    0.27    119.58   
    56. A(C   2,C   3,C   4)          120.45 -0.000918    0.17    120.63   
    57. A(C   4,C   3,H  29)          118.35 -0.006558    0.98    119.33   
    58. A(C   2,C   3,H  29)          121.14  0.007442   -1.13    120.01   
    59. A(C   3,C   4,H  30)          120.02 -0.000732    0.08    120.10   
    60. A(C   3,C   4,C   5)          119.92  0.002249   -0.25    119.67   
    61. A(C   5,C   4,H  30)          119.97 -0.001551    0.20    120.17   
    62. A(C   4,C   5,C   6)          120.18 -0.001342    0.20    120.37   
    63. A(C   4,C   5,H  31)          119.86 -0.000882    0.14    120.00   
    64. A(C   6,C   5,H  31)          119.96  0.002219   -0.33    119.63   
    65. A(C   7,C   6,H  32)          121.50  0.003233   -0.50    121.00   
    66. A(C   5,C   6,H  32)          117.32 -0.005216    0.78    118.10   
    67. A(C   5,C   6,C   7)          121.14  0.001980   -0.28    120.87   
    68. A(C   2,C   7,N   8)          120.06 -0.004509    0.33    120.39   
    69. A(C   2,C   7,C   6)          117.36 -0.004248    0.73    118.09   
    70. A(C   6,C   7,N   8)          122.29  0.008635   -0.90    121.39   
    71. A(C   7,N   8,C   9)          123.09  0.016052   -1.66    121.44   
    72. A(C   9,N   8,C  28)          118.45 -0.007815    0.81    119.26   
    73. A(C   7,N   8,C  28)          118.45 -0.008237    0.85    119.30   
    74. A(C  10,C   9,C  20)          117.33 -0.002943    0.58    117.91   
    75. A(N   8,C   9,C  20)          120.11 -0.004581    0.34    120.44   
    76. A(N   8,C   9,C  10)          122.26  0.007396   -0.75    121.50   
    77. A(C   9,C  10,C  11)          121.29  0.002103   -0.28    121.02   
    78. A(C   9,C  10,H  33)          121.43  0.002924   -0.46    120.97   
    79. A(C  11,C  10,H  33)          117.25 -0.005027    0.74    117.99   
    80. A(C  10,C  11,H  34)          118.75  0.000035    0.00    118.75   
    81. A(C  10,C  11,C  12)          120.60 -0.001719    0.24    120.84   
    82. A(C  12,C  11,H  34)          120.65  0.001686   -0.25    120.40   
    83. A(C  13,C  12,C  19)          120.46 -0.000347    0.03    120.50   
    84. A(C  11,C  12,C  19)          118.79  0.002057   -0.24    118.56   
    85. A(C  11,C  12,C  13)          120.69 -0.001726    0.22    120.91   
    86. A(C  12,C  13,C  14)          120.39  0.000639   -0.08    120.32   
    87. A(C  14,C  13,C  18)          118.89 -0.000957    0.11    119.00   
    88. A(C  12,C  13,C  18)          120.72  0.000318   -0.03    120.68   
    89. A(C  13,C  14,C  15)          120.44 -0.000113    0.01    120.45   
    90. A(C  15,C  14,H  35)          118.92 -0.002112    0.32    119.24   
    91. A(C  13,C  14,H  35)          120.63  0.002225   -0.33    120.30   
    92. A(C  16,C  15,H  36)          119.92 -0.000407    0.06    119.98   
    93. A(C  14,C  15,C  16)          120.13  0.000027    0.01    120.13   
    94. A(C  14,C  15,H  36)          119.95  0.000380   -0.06    119.89   
    95. A(C  15,C  16,C  17)          119.99  0.001195   -0.14    119.85   
    96. A(C  17,C  16,H  37)          120.01 -0.000557    0.07    120.07   
    97. A(C  15,C  16,H  37)          120.01 -0.000638    0.08    120.08   
    98. A(C  16,C  17,C  18)          120.14 -0.000038    0.01    120.15   
    99. A(C  18,C  17,H  38)          119.95  0.000433   -0.07    119.88   
   100. A(C  16,C  17,H  38)          119.92 -0.000395    0.06    119.97   
   101. A(C  13,C  18,C  17)          120.42 -0.000114    0.01    120.43   
   102. A(C  13,C  18,H  39)          120.73  0.002045   -0.31    120.42   
   103. A(C  17,C  18,H  39)          118.84 -0.001928    0.30    119.14   
   104. A(C  12,C  19,C  20)          120.91 -0.001534    0.24    121.15   
   105. A(C  20,C  19,H  40)          120.09  0.005765   -0.87    119.22   
   106. A(C  12,C  19,H  40)          118.91 -0.004266    0.65    119.55   
   107. A(C   9,C  20,C  21)          119.26 -0.001702    0.28    119.53   
   108. A(C   9,C  20,C  19)          120.05  0.001684   -0.21    119.84   
   109. A(C  19,C  20,C  21)          120.56 -0.000010   -0.07    120.50   
   110. A(O  22,C  21,C  23)          120.16 -0.009193    1.03    121.19   
   111. A(C  20,C  21,C  23)          119.51  0.018018   -2.02    117.48   
   112. A(C  20,C  21,O  22)          120.25 -0.008855    0.98    121.24   
   113. A(C  24,C  23,C  28)          119.91  0.001280   -0.26    119.65   
   114. A(C  21,C  23,C  28)          119.33 -0.003454    0.51    119.84   
   115. A(C  21,C  23,C  24)          120.76  0.002167   -0.25    120.51   
   116. A(C  25,C  24,H  41)          118.36 -0.005946    0.94    119.30   
   117. A(C  23,C  24,H  41)          121.12  0.008268   -1.21    119.91   
   118. A(C  23,C  24,C  25)          120.50 -0.002343    0.28    120.78   
   119. A(C  26,C  25,H  42)          119.89 -0.000636    0.09    119.97   
   120. A(C  24,C  25,H  42)          119.89 -0.000629    0.09    119.97   
   121. A(C  24,C  25,C  26)          120.23  0.001265   -0.17    120.05   
   122. A(C  25,C  26,C  27)          120.50 -0.002348    0.28    120.78   
   123. A(C  27,C  26,H  43)          121.11  0.008272   -1.21    119.91   
   124. A(C  25,C  26,H  43)          118.36 -0.005945    0.94    119.30   
   125. A(C  26,C  27,C  28)          119.90  0.001211   -0.25    119.65   
   126. A(C   1,C  27,C  28)          119.35 -0.003147    0.47    119.82   
   127. A(C   1,C  27,C  26)          120.74  0.001928   -0.22    120.53   
   128. A(C  23,C  28,C  27)          118.91  0.000906    0.14    119.05   
   129. A(N   8,C  28,C  27)          120.56 -0.000413   -0.08    120.49   
   130. A(N   8,C  28,C  23)          120.53 -0.000493   -0.06    120.47   
   131. D(C   3,C   2,C   1,O   0)     -5.38  0.000531   -0.59     -5.97   
   132. D(C   7,C   2,C   1,C  27)     -4.48  0.000041   -0.73     -5.21   
   133. D(C   7,C   2,C   1,O   0)    178.78  0.000908   -0.53    178.25   
   134. D(C   3,C   2,C   1,C  27)    171.36 -0.000335   -0.79    170.56   
   135. D(H  29,C   3,C   2,C   1)      6.82  0.001016   -0.58      6.24   
   136. D(C   4,C   3,C   2,C   7)      5.55  0.001457   -1.27      4.28   
   137. D(C   4,C   3,C   2,C   1)   -170.26  0.001985   -1.23   -171.49   
   138. D(H  29,C   3,C   2,C   7)   -177.37  0.000488   -0.63   -177.99   
   139. D(H  30,C   4,C   3,C   2)    178.69 -0.000656    0.81    179.50   
   140. D(H  30,C   4,C   3,H  29)      1.53 -0.000111    0.24      1.77   
   141. D(C   5,C   4,C   3,H  29)   -175.11  0.000612   -0.27   -175.38   
   142. D(C   5,C   4,C   3,C   2)      2.05  0.000068    0.30      2.35   
   143. D(C   6,C   5,C   4,C   3)     -3.48  0.000078   -0.22     -3.70   
   144. D(H  31,C   5,C   4,C   3)    175.62 -0.000264    0.14    175.76   
   145. D(C   6,C   5,C   4,H  30)    179.88  0.000774   -0.72    179.15   
   146. D(H  31,C   5,C   4,H  30)     -1.02  0.000432   -0.37     -1.39   
   147. D(H  32,C   6,C   5,H  31)     -4.10 -0.000844    1.06     -3.04   
   148. D(C   7,C   6,C   5,H  31)    178.17 -0.000819    0.71    178.88   
   149. D(H  32,C   6,C   5,C   4)    175.00 -0.001214    1.42    176.43   
   150. D(C   7,C   6,C   5,C   4)     -2.73 -0.001190    1.07     -1.66   
   151. D(N   8,C   7,C   6,H  32)      6.11  0.000491   -0.57      5.54   
   152. D(C   2,C   7,C   6,H  32)   -167.61  0.002101   -2.27   -169.89   
   153. D(C   2,C   7,C   6,C   5)     10.02  0.001882   -1.87      8.15   
   154. D(N   8,C   7,C   2,C   3)    174.80 -0.001050    0.35    175.15   
   155. D(N   8,C   7,C   2,C   1)     -9.34 -0.001520    0.30     -9.04   
   156. D(N   8,C   7,C   6,C   5)   -176.25  0.000272   -0.17   -176.42   
   157. D(C   6,C   7,C   2,C   3)    -11.33 -0.001756    1.94     -9.40   
   158. D(C   6,C   7,C   2,C   1)    164.53 -0.002226    1.88    166.41   
   159. D(C   9,N   8,C   7,C   6)     25.71  0.000168   -1.31     24.39   
   160. D(C  28,N   8,C   7,C   2)     19.27 -0.001483    0.50     19.77   
   161. D(C   9,N   8,C   7,C   2)   -160.73 -0.001438    0.46   -160.28   
   162. D(C  28,N   8,C   7,C   6)   -154.29  0.000123   -1.27   -155.56   
   163. D(C  20,C   9,N   8,C  28)     19.45 -0.001442    0.44     19.90   
   164. D(C  20,C   9,N   8,C   7)   -160.54 -0.001487    0.48   -160.06   
   165. D(C  10,C   9,N   8,C  28)   -154.03  0.000133   -1.34   -155.37   
   166. D(C  10,C   9,N   8,C   7)     25.97  0.000088   -1.29     24.68   
   167. D(H  33,C  10,C   9,C  20)   -167.69  0.002166   -2.30   -169.99   
   168. D(H  33,C  10,C   9,N   8)      5.97  0.000506   -0.58      5.39   
   169. D(C  11,C  10,C   9,C  20)     10.25  0.002054   -1.99      8.26   
   170. D(C  11,C  10,C   9,N   8)   -176.09  0.000394   -0.27   -176.36   
   171. D(H  34,C  11,C  10,H  33)     -5.21 -0.000975    1.21     -4.00   
   172. D(H  34,C  11,C  10,C   9)    176.76 -0.001018    0.94    177.70   
   173. D(C  12,C  11,C  10,H  33)    175.28 -0.001176    1.42    176.70   
   174. D(C  12,C  11,C  10,C   9)     -2.74 -0.001220    1.15     -1.59   
   175. D(C  19,C  12,C  11,H  34)    176.96 -0.000055   -0.03    176.93   
   176. D(C  19,C  12,C  11,C  10)     -3.55  0.000141   -0.24     -3.79   
   177. D(C  13,C  12,C  11,H  34)     -0.48  0.000380   -0.36     -0.85   
   178. D(C  13,C  12,C  11,C  10)    179.02  0.000576   -0.58    178.44   
   179. D(C  18,C  13,C  12,C  19)   -137.48  0.000447   -0.54   -138.02   
   180. D(C  18,C  13,C  12,C  11)     39.92  0.000066   -0.21     39.71   
   181. D(C  14,C  13,C  12,C  19)     42.43  0.000489   -0.60     41.84   
   182. D(C  14,C  13,C  12,C  11)   -140.17  0.000108   -0.26   -140.43   
   183. D(H  35,C  14,C  13,C  18)   -179.09  0.000064   -0.05   -179.14   
   184. D(H  35,C  14,C  13,C  12)      1.00  0.000021   -0.00      0.99   
   185. D(C  15,C  14,C  13,C  18)     -0.10  0.000060   -0.07     -0.17   
   186. D(C  15,C  14,C  13,C  12)    179.99  0.000018   -0.02    179.97   
   187. D(H  36,C  15,C  14,H  35)     -0.74  0.000018   -0.00     -0.74   
   188. D(H  36,C  15,C  14,C  13)   -179.75 -0.000022    0.02   -179.73   
   189. D(C  16,C  15,C  14,H  35)    179.08 -0.000064    0.09    179.17   
   190. D(C  16,C  15,C  14,C  13)      0.07 -0.000104    0.11      0.18   
   191. D(H  37,C  16,C  15,C  14)    179.97  0.000072   -0.08    179.89   
   192. D(C  17,C  16,C  15,C  14)      0.01  0.000035   -0.04     -0.03   
   193. D(C  17,C  16,C  15,H  36)    179.82 -0.000045    0.06    179.88   
   194. D(H  37,C  16,C  15,H  36)     -0.21 -0.000009    0.02     -0.20   
   195. D(H  38,C  17,C  16,H  37)     -0.25  0.000011   -0.01     -0.25   
   196. D(H  38,C  17,C  16,C  15)    179.72  0.000048   -0.05    179.67   
   197. D(C  18,C  17,C  16,H  37)    179.99  0.000041   -0.04    179.94   
   198. D(C  18,C  17,C  16,C  15)     -0.05  0.000078   -0.09     -0.14   
   199. D(H  39,C  18,C  17,H  38)     -0.90  0.000073   -0.06     -0.96   
   200. D(H  39,C  18,C  17,C  16)    178.87  0.000041   -0.03    178.85   
   201. D(C  13,C  18,C  17,H  38)   -179.75 -0.000092    0.09   -179.66   
   202. D(C  13,C  18,C  17,C  16)      0.02 -0.000123    0.13      0.15   
   203. D(H  39,C  18,C  13,C  14)   -178.77 -0.000068    0.10   -178.68   
   204. D(H  39,C  18,C  13,C  12)      1.14 -0.000025    0.05      1.18   
   205. D(C  17,C  18,C  13,C  14)      0.06  0.000053   -0.06      0.00   
   206. D(C  17,C  18,C  13,C  12)    179.97  0.000096   -0.11    179.86   
   207. D(H  40,C  19,C  12,C  13)      3.13 -0.000032    0.21      3.34   
   208. D(H  40,C  19,C  12,C  11)   -174.31  0.000438   -0.13   -174.44   
   209. D(C  20,C  19,C  12,C  13)    179.47 -0.000448    0.63    180.09   
   210. D(C  20,C  19,C  12,C  11)      2.02  0.000022    0.29      2.31   
   211. D(C  21,C  20,C  19,H  40)      6.21  0.001170   -0.74      5.46   
   212. D(C  21,C  20,C  19,C  12)   -170.09  0.001960   -1.22   -171.31   
   213. D(C   9,C  20,C  19,H  40)   -177.96  0.000637   -0.80   -178.76   
   214. D(C   9,C  20,C  19,C  12)      5.75  0.001427   -1.28      4.47   
   215. D(C  21,C  20,C   9,C  10)    164.25 -0.002345    1.94    166.19   
   216. D(C  21,C  20,C   9,N   8)     -9.55 -0.001519    0.33     -9.22   
   217. D(C  19,C  20,C   9,C  10)    -11.64 -0.001888    2.01     -9.63   
   218. D(C  19,C  20,C   9,N   8)    174.56 -0.001062    0.40    174.96   
   219. D(C  23,C  21,C  20,C  19)    171.47 -0.000353   -0.80    170.67   
   220. D(C  23,C  21,C  20,C   9)     -4.40  0.000036   -0.72     -5.12   
   221. D(O  22,C  21,C  20,C  19)     -5.31  0.000556   -0.65     -5.96   
   222. D(O  22,C  21,C  20,C   9)    178.82  0.000945   -0.57    178.25   
   223. D(C  28,C  23,C  21,O  22)   -175.00 -0.000515    0.64   -174.37   
   224. D(C  28,C  23,C  21,C  20)      8.22  0.000383    0.79      9.00   
   225. D(C  24,C  23,C  21,O  22)      5.79  0.000086    0.33      6.12   
   226. D(C  24,C  23,C  21,C  20)   -170.99  0.000984    0.49   -170.51   
   227. D(H  41,C  24,C  23,C  28)    179.53  0.000353   -0.27    179.26   
   228. D(H  41,C  24,C  23,C  21)     -1.27 -0.000289    0.04     -1.23   
   229. D(C  25,C  24,C  23,C  28)     -2.12 -0.000606    0.34     -1.78   
   230. D(C  25,C  24,C  23,C  21)    177.08 -0.001248    0.65    177.73   
   231. D(H  42,C  25,C  24,H  41)     -0.54 -0.000449    0.40     -0.14   
   232. D(H  42,C  25,C  24,C  23)   -178.93  0.000254   -0.16   -179.09   
   233. D(C  26,C  25,C  24,H  41)    179.48 -0.000443    0.40    179.88   
   234. D(C  26,C  25,C  24,C  23)      1.09  0.000259   -0.16      0.93   
   235. D(H  43,C  26,C  25,H  42)     -0.54 -0.000448    0.40     -0.15   
   236. D(H  43,C  26,C  25,C  24)    179.44 -0.000453    0.40    179.84   
   237. D(C  27,C  26,C  25,H  42)   -178.93  0.000260   -0.16   -179.09   
   238. D(C  27,C  26,C  25,C  24)      1.06  0.000255   -0.16      0.89   
   239. D(C  28,C  27,C  26,H  43)    179.52  0.000349   -0.27    179.24   
   240. D(C  28,C  27,C  26,C  25)     -2.14 -0.000618    0.34     -1.81   
   241. D(C   1,C  27,C  26,H  43)     -1.34 -0.000301    0.04     -1.30   
   242. D(C   1,C  27,C  26,C  25)    177.00 -0.001267    0.65    177.65   
   243. D(C  28,C  27,C   1,C   2)      8.14  0.000386    0.82      8.95   
   244. D(C  28,C  27,C   1,O   0)   -175.12 -0.000483    0.61   -174.51   
   245. D(C  26,C  27,C   1,C   2)   -171.01  0.000995    0.51   -170.50   
   246. D(C  26,C  27,C   1,O   0)      5.73  0.000126    0.31      6.04   
   247. D(N   8,C  28,C  27,C  26)   -178.92  0.000344   -0.18   -179.10   
   248. D(N   8,C  28,C  27,C   1)      1.92  0.000942   -0.48      1.45   
   249. D(C  27,C  28,C  23,C  24)      1.02  0.000312   -0.17      0.84   
   250. D(C  27,C  28,C  23,C  21)   -178.20  0.000900   -0.47   -178.67   
   251. D(N   8,C  28,C  23,C  24)   -178.98  0.000309   -0.16   -179.14   
   252. D(N   8,C  28,C  23,C  21)      1.81  0.000897   -0.46      1.34   
   253. D(C  27,C  28,N   8,C   9)    164.43  0.000747   -0.28    164.15   
   254. D(C  27,C  28,N   8,C   7)    -15.57  0.000792   -0.32    -15.89   
   255. D(C  23,C  28,N   8,C   9)    -15.58  0.000750   -0.29    -15.86   
   256. D(C  23,C  28,C  27,C   1)   -178.07  0.000939   -0.47   -178.54   
   257. D(C  23,C  28,N   8,C   7)    164.42  0.000795   -0.32    164.09   
   258. D(C  23,C  28,C  27,C  26)      1.09  0.000342   -0.17      0.92   
    ----------------------------------------------------------------------------

         *************************************************************
         *                GEOMETRY OPTIMIZATION CYCLE   2            *
         *************************************************************
      -----------------------------------------------------------      
     |                   =====================                   |     
     |                           x T B                           |     
     |                   =====================                   |     
     |                         S. Grimme                         |     
     |          Mulliken Center for Theoretical Chemistry        |     
     |                    University of Bonn                     |     
      -----------------------------------------------------------      

   * xtb version 6.2.3 (830e466) compiled by 'ehlert@majestix' on 2020-03-16

   xtb is free software: you can redistribute it and/or modify it under
   the terms of the GNU Lesser General Public License as published by
   the Free Software Foundation, either version 3 of the License, or
   (at your option) any later version.
   
   xtb is distributed in the hope that it will be useful,
   but WITHOUT ANY WARRANTY; without even the implied warranty of
   MERCHANTABILITY or FITNESS FOR A PARTICULAR PURPOSE.  See the
   GNU Lesser General Public License for more details.
   
   Cite this work as:
   * S. Grimme, C. Bannwarth, P. Shushkov, J. Chem. Theory Comput., 2017,
     13, 1989-2009. DOI: 10.1021/acs.jctc.7b00118
   * C. Bannwarth, S. Ehlert and S. Grimme., J. Chem. Theory Comput., 2019,
     15, 1652-1671. DOI: 10.1021/acs.jctc.8b01176
   * P. Pracht, E. Caldeweyher, S. Ehlert, S. Grimme, ChemRxiv, 2019, preprint.
     DOI: 10.26434/chemrxiv.8326202.v1
   
   for DFT-D4:
   * E. Caldeweyher, C. Bannwarth and S. Grimme, J. Chem. Phys., 2017,
     147, 034112. DOI: 10.1063/1.4993215
   * E. Caldeweyher, S. Ehlert, A. Hansen, H. Neugebauer, S. Spicher,
     C. Bannwarth and S. Grimme, J. Chem. Phys., 2019, 150, 154122.
     DOI: 10.1063/1.5090222
   
   for sTDA-xTB:
   * S. Grimme and C. Bannwarth, J. Chem. Phys., 2016, 145, 054103.
     DOI: 10.1063/1.4959605
   
   in the mass-spec context:
   * V. Asgeirsson, C. Bauer and S. Grimme, Chem. Sci., 2017, 8, 4879.
     DOI: 10.1039/c7sc00601b
   
   for metadynamics refer to:
   * S. Grimme, J. Chem. Theory Comput., 2019, 155, 2847-2862
     DOI: 10.1021/acs.jctc.9b00143
   
   with help from (in alphabetical order)
   C. Bannwarth, F. Bohle, G. Brandenburg, E. Caldeweyher, M. Checinski,
   S. Dohm, S. Ehlert, S. Ehrlich, F. März, H. Neugebauer, J. Pisarek,
   P. Pracht, P. Shushkov, and S. Spicher.
   
 * started run on 2026/01/19 at 14:10:40.269     

           -------------------------------------------------
          |                Calculation Setup                |
           -------------------------------------------------

          program call               : /appl/orca_4.2.1/orca_4_2_1_linux_x86-64_openmpi314/xtb pre_opt_XTB.xyz --grad -c 0 -u 0 -P 1 --namespace pre_opt
          hostname                   : cnode12
          calculation namespace      : pre_opt
          coordinate file            : pre_opt_XTB.xyz
          omp threads                :                     1
          number of atoms            :                    44
          number of electrons        :                   136
          charge                     :                     0
          spin                       :                   0.0
          first test random number   :      0.54330216356585

########################################################################
[WARNING] Please study the warnings concerning your input carefully
-2- prog_main: XTBPATH is not set, using XTBHOME instead
-1- prog_main: XTBHOME is not set, using HOME instead
########################################################################
           ------------------------------------------------- 
          |                 G F N 2 - x T B                 |
          | Geometry, Frequencies, Noncovalent interactions |
          |            JCTC 2019 parametrisation            |
           ------------------------------------------------- 
             k(s)              :                1.8500
             k(p)              :                2.2300
             k(d)              :                2.2300
             k(f)              :                2.0000
             kEN (H0ij)        :               -2.0000
             D4 a1             :                0.5200
             D4 a2             :                5.0000
             D4 s6             :                1.0000
             D4 s8             :                2.7000
             D4 s9             :                5.0000
             alphaj            :                2.0000

  Z AO/shell   Hii/eV     exponent
  1     Wed Apr 25 08:07:45 CEST 2018   EN: 2.200 GM2: 0.406  GM3: 0.0800  RAES: 1.40
     1s    -10.707211    1.230000
  6     Wed Apr 25 08:07:45 CEST 2018   EN: 2.550 GM2: 0.538  GM3: 0.1500  RAES: 3.00
     2s    -13.970922    2.096432
     2p    -10.063292    1.800000
  7     Wed Apr 25 08:07:45 CEST 2018   EN: 3.040 GM2: 0.461  GM3:-0.0640  RAES: 1.90
     2s    -16.686243    2.339881
     2p    -12.523956    2.014332
  8     Wed Apr 25 08:07:45 CEST 2018   EN: 3.440 GM2: 0.452  GM3:-0.0517  RAES: 1.80
     2s    -20.229985    2.439742
     2p    -15.503117    2.137023

           ------------------------------------------------- 
          |        Self-Consistent Charge Iterations        |
           ------------------------------------------------- 

          ...................................................
          :                      SETUP                      :
          :.................................................:
          :  # basis functions                 131          :
          :  # atomic orbitals                 131          :
          :  # shells                           73          :
          :  # electrons                       136          :
          :  max. iterations                   250          :
          :  Hamiltonian                  GFN2-xTB          :
          :  restarted?                      false          :
          :  GBSA solvation                  false          :
          :  PC potential                    false          :
          :  electronic temp.          300.0000000     K    :
          :  accuracy                    1.0000000          :
          :  -> integral cutoff          0.2500000E+02      :
          :  -> integral neglect         0.1000000E-07      :
          :  -> SCF convergence          0.1000000E-05 Eh   :
          :  -> wf. convergence          0.1000000E-03 e    :
          :  Broyden damping             0.4000000          :
          ...................................................

 iter      E             dE          RMSdq      gap      omega  full diag
   1    -75.5514043 -0.755514E+02  0.485E+00    1.75       0.0  T
   2    -75.6585395 -0.107135E+00  0.283E+00    1.85       1.0  T
   3    -75.6395968  0.189428E-01  0.160E+00    1.96       1.0  T
   4    -75.6793155 -0.397187E-01  0.473E-01    2.08       1.0  T
   5    -75.6904147 -0.110992E-01  0.121E-01    2.03       1.0  T
   6    -75.6909763 -0.561598E-03  0.546E-02    2.05       1.0  T
   7    -75.6910489 -0.725716E-04  0.223E-02    2.05       1.0  T
   8    -75.6910517 -0.279569E-05  0.115E-02    2.05       1.3  T
   9    -75.6910535 -0.177782E-05  0.291E-03    2.05       5.2  T
  10    -75.6910536 -0.824224E-07  0.166E-03    2.05       9.1  T
  11    -75.6910537 -0.907422E-07  0.656E-04    2.05      23.0  T
  12    -75.6910537 -0.187778E-08  0.247E-04    2.05      61.0  T

   *** convergence criteria satisfied after 12 iterations ***

         #    Occupation            Energy/Eh            Energy/eV
      -------------------------------------------------------------
         1        2.0000           -0.7064933             -19.2247
       ...           ...                  ...                  ...
        62        2.0000           -0.4245146             -11.5516
        63        2.0000           -0.4217763             -11.4771
        64        2.0000           -0.4119554             -11.2099
        65        2.0000           -0.4063418             -11.0571
        66        2.0000           -0.3917139             -10.6591
[...]
     |                         S. Grimme                         |     
     |          Mulliken Center for Theoretical Chemistry        |     
     |                    University of Bonn                     |     
      -----------------------------------------------------------      

   * xtb version 6.2.3 (830e466) compiled by 'ehlert@majestix' on 2020-03-16

   xtb is free software: you can redistribute it and/or modify it under
   the terms of the GNU Lesser General Public License as published by
   the Free Software Foundation, either version 3 of the License, or
   (at your option) any later version.
   
   xtb is distributed in the hope that it will be useful,
   but WITHOUT ANY WARRANTY; without even the implied warranty of
   MERCHANTABILITY or FITNESS FOR A PARTICULAR PURPOSE.  See the
   GNU Lesser General Public License for more details.
   
   Cite this work as:
   * S. Grimme, C. Bannwarth, P. Shushkov, J. Chem. Theory Comput., 2017,
     13, 1989-2009. DOI: 10.1021/acs.jctc.7b00118
   * C. Bannwarth, S. Ehlert and S. Grimme., J. Chem. Theory Comput., 2019,
     15, 1652-1671. DOI: 10.1021/acs.jctc.8b01176
   * P. Pracht, E. Caldeweyher, S. Ehlert, S. Grimme, ChemRxiv, 2019, preprint.
     DOI: 10.26434/chemrxiv.8326202.v1
   
   for DFT-D4:
   * E. Caldeweyher, C. Bannwarth and S. Grimme, J. Chem. Phys., 2017,
     147, 034112. DOI: 10.1063/1.4993215
   * E. Caldeweyher, S. Ehlert, A. Hansen, H. Neugebauer, S. Spicher,
     C. Bannwarth and S. Grimme, J. Chem. Phys., 2019, 150, 154122.
     DOI: 10.1063/1.5090222
   
   for sTDA-xTB:
   * S. Grimme and C. Bannwarth, J. Chem. Phys., 2016, 145, 054103.
     DOI: 10.1063/1.4959605
   
   in the mass-spec context:
   * V. Asgeirsson, C. Bauer and S. Grimme, Chem. Sci., 2017, 8, 4879.
     DOI: 10.1039/c7sc00601b
   
   for metadynamics refer to:
   * S. Grimme, J. Chem. Theory Comput., 2019, 155, 2847-2862
     DOI: 10.1021/acs.jctc.9b00143
   
   with help from (in alphabetical order)
   C. Bannwarth, F. Bohle, G. Brandenburg, E. Caldeweyher, M. Checinski,
   S. Dohm, S. Ehlert, S. Ehrlich, F. März, H. Neugebauer, J. Pisarek,
   P. Pracht, P. Shushkov, and S. Spicher.
   
 * started run on 2026/01/19 at 14:10:51.772     

           -------------------------------------------------
          |                Calculation Setup                |
           -------------------------------------------------

          program call               : /appl/orca_4.2.1/orca_4_2_1_linux_x86-64_openmpi314/xtb pre_opt_XTB.xyz --grad -c 0 -u 0 -P 1 --namespace pre_opt
          hostname                   : cnode12
          calculation namespace      : pre_opt
          coordinate file            : pre_opt_XTB.xyz
          omp threads                :                     1
          number of atoms            :                    44
          number of electrons        :                   136
          charge                     :                     0
          spin                       :                   0.0
          first test random number   :      0.36399373129917

########################################################################
[WARNING] Please study the warnings concerning your input carefully
-2- prog_main: XTBPATH is not set, using XTBHOME instead
-1- prog_main: XTBHOME is not set, using HOME instead
########################################################################
           ------------------------------------------------- 
          |                 G F N 2 - x T B                 |
          | Geometry, Frequencies, Noncovalent interactions |
          |            JCTC 2019 parametrisation            |
           ------------------------------------------------- 
             k(s)              :                1.8500
             k(p)              :                2.2300
             k(d)              :                2.2300
             k(f)              :                2.0000
             kEN (H0ij)        :               -2.0000
             D4 a1             :                0.5200
             D4 a2             :                5.0000
             D4 s6             :                1.0000
             D4 s8             :                2.7000
             D4 s9             :                5.0000
             alphaj            :                2.0000

  Z AO/shell   Hii/eV     exponent
  1     Wed Apr 25 08:07:45 CEST 2018   EN: 2.200 GM2: 0.406  GM3: 0.0800  RAES: 1.40
     1s    -10.707211    1.230000
  6     Wed Apr 25 08:07:45 CEST 2018   EN: 2.550 GM2: 0.538  GM3: 0.1500  RAES: 3.00
     2s    -13.970922    2.096432
     2p    -10.063292    1.800000
  7     Wed Apr 25 08:07:45 CEST 2018   EN: 3.040 GM2: 0.461  GM3:-0.0640  RAES: 1.90
     2s    -16.686243    2.339881
     2p    -12.523956    2.014332
  8     Wed Apr 25 08:07:45 CEST 2018   EN: 3.440 GM2: 0.452  GM3:-0.0517  RAES: 1.80
     2s    -20.229985    2.439742
     2p    -15.503117    2.137023

           ------------------------------------------------- 
          |        Self-Consistent Charge Iterations        |
           ------------------------------------------------- 

          ...................................................
          :                      SETUP                      :
          :.................................................:
          :  # basis functions                 131          :
          :  # atomic orbitals                 131          :
          :  # shells                           73          :
          :  # electrons                       136          :
          :  max. iterations                   250          :
          :  Hamiltonian                  GFN2-xTB          :
          :  restarted?                      false          :
          :  GBSA solvation                  false          :
          :  PC potential                    false          :
          :  electronic temp.          300.0000000     K    :
          :  accuracy                    1.0000000          :
          :  -> integral cutoff          0.2500000E+02      :
          :  -> integral neglect         0.1000000E-07      :
          :  -> SCF convergence          0.1000000E-05 Eh   :
          :  -> wf. convergence          0.1000000E-03 e    :
          :  Broyden damping             0.4000000          :
          ...................................................

 iter      E             dE          RMSdq      gap      omega  full diag
   1    -75.5913500 -0.755914E+02  0.472E+00    1.89       0.0  T
   2    -75.6848781 -0.935281E-01  0.278E+00    2.12       1.0  T
   3    -75.6679681  0.169099E-01  0.147E+00    2.11       1.0  T
   4    -75.7004357 -0.324676E-01  0.411E-01    2.20       1.0  T
   5    -75.7083837 -0.794798E-02  0.116E-01    2.15       1.0  T
   6    -75.7089002 -0.516513E-03  0.511E-02    2.18       1.0  T
   7    -75.7089740 -0.737496E-04  0.208E-02    2.18       1.0  T
   8    -75.7089768 -0.278808E-05  0.108E-02    2.18       1.4  T
   9    -75.7089785 -0.169180E-05  0.271E-03    2.18       5.6  T
  10    -75.7089785 -0.527112E-07  0.148E-03    2.18      10.2  T
  11    -75.7089786 -0.685176E-07  0.601E-04    2.18      25.1  T
  12    -75.7089786 -0.170040E-08  0.188E-04    2.18      80.3  T

   *** convergence criteria satisfied after 12 iterations ***

         #    Occupation            Energy/Eh            Energy/eV
      -------------------------------------------------------------
         1        2.0000           -0.7035308             -19.1440
       ...           ...                  ...                  ...
        62        2.0000           -0.4252802             -11.5725
        63        2.0000           -0.4236654             -11.5285
        64        2.0000           -0.4116802             -11.2024
        65        2.0000           -0.4057675             -11.0415
        66        2.0000           -0.3937896             -10.7156
        67        2.0000           -0.3890381             -10.5863
        68        2.0000           -0.3830079             -10.4222 (HOMO)
        69                         -0.3030101              -8.2453 (LUMO)
        70                         -0.2781709              -7.5694
        71                         -0.2625892              -7.1454
        72                         -0.2523127              -6.8658
        73                         -0.2453076              -6.6752
       ...                                ...                  ...
       131                          0.7194366              19.5769
      -------------------------------------------------------------
                  HL-Gap            0.0799978 Eh            2.1769 eV
             Fermi-level           -0.3430090 Eh           -9.3337 eV

 SCC (total)                   0 d,  0 h,  0 min,  0.111 sec
 SCC setup                      ...        0 min,  0.001 sec (  0.577%)
 Dispersion                     ...        0 min,  0.001 sec (  0.732%)
 integral evaluation            ...        0 min,  0.043 sec ( 39.102%)
 zeroth order Hamiltonian       ...        0 min,  0.000 sec (  0.362%)
 iterations                     ...        0 min,  0.031 sec ( 28.400%)
 molecular gradient             ...        0 min,  0.034 sec ( 30.598%)
 printout                       ...        0 min,  0.000 sec (  0.193%)

         :::::::::::::::::::::::::::::::::::::::::::::::::::::
         ::                     SUMMARY                     ::
         :::::::::::::::::::::::::::::::::::::::::::::::::::::
         :: total energy             -74.410469415595 Eh    ::
         :: gradient norm              0.000285424859 Eh/a0 ::
         :: HOMO-LUMO gap              2.176851022828 eV    ::
         ::.................................................::
         :: SCC energy               -75.708978587086 Eh    ::
         :: -> isotropic ES            0.059416727765 Eh    ::
         :: -> anisotropic ES          0.002161920933 Eh    ::
         :: -> anisotropic XC          0.033763907126 Eh    ::
         :: -> dispersion             -0.059544477932 Eh    ::
         :: repulsion energy           1.298713613600 Eh    ::
         :: add. restraining           0.000000000000 Eh    ::
         :::::::::::::::::::::::::::::::::::::::::::::::::::::

           -------------------------------------------------
          |                Property Printout                |
           -------------------------------------------------

    * Orbital Energies and Occupations

         #    Occupation            Energy/Eh            Energy/eV
      -------------------------------------------------------------
         1        2.0000           -0.7035308             -19.1440
       ...           ...                  ...                  ...
        56        2.0000           -0.4431959             -12.0600
        57        2.0000           -0.4368603             -11.8876
        58        2.0000           -0.4320850             -11.7576
        59        2.0000           -0.4300209             -11.7015
        60        2.0000           -0.4280199             -11.6470
        61        2.0000           -0.4265526             -11.6071
        62        2.0000           -0.4252802             -11.5725
        63        2.0000           -0.4236654             -11.5285
        64        2.0000           -0.4116802             -11.2024
        65        2.0000           -0.4057675             -11.0415
        66        2.0000           -0.3937896             -10.7156
        67        2.0000           -0.3890381             -10.5863
        68        2.0000           -0.3830079             -10.4222 (HOMO)
        69                         -0.3030101              -8.2453 (LUMO)
        70                         -0.2781709              -7.5694
        71                         -0.2625892              -7.1454
        72                         -0.2523127              -6.8658
        73                         -0.2453076              -6.6752
        74                         -0.2310608              -6.2875
        75                         -0.2295061              -6.2452
        76                         -0.2143174              -5.8319
        77                         -0.1954124              -5.3174
        78                         -0.1732064              -4.7132
        79                         -0.1185116              -3.2249
       ...                                ...                  ...
       131                          0.7194366              19.5769
      -------------------------------------------------------------
                  HL-Gap            0.0799978 Eh            2.1769 eV
             Fermi-level           -0.3430090 Eh           -9.3337 eV

     #   Z        covCN         q      C6AA      α(0)
     1   8 O      0.857    -0.392    21.512     6.218
     2   6 C      2.832     0.220    23.367     7.921
     3   6 C      2.981    -0.030    28.739     8.794
     4   6 C      2.925    -0.017    28.445     8.746
     5   6 C      2.916    -0.032    28.801     8.800
     6   6 C      2.921    -0.023    28.585     8.768
     7   6 C      2.920    -0.046    29.142     8.853
     8   6 C      2.930     0.061    26.633     8.463
     9   7 N      2.754    -0.023    21.684     6.916
    10   6 C      2.930     0.058    26.705     8.475
    11   6 C      2.918    -0.047    29.173     8.857
    12   6 C      2.925    -0.029    28.733     8.791
    13   6 C      2.973     0.010    27.794     8.648
    14   6 C      2.977     0.010    27.789     8.647
    15   6 C      2.925    -0.032    28.808     8.802
    16   6 C      2.919    -0.028    28.691     8.784
    17   6 C      2.920    -0.029    28.723     8.789
    18   6 C      2.919    -0.029    28.715     8.787
    19   6 C      2.925    -0.033    28.829     8.805
    20   6 C      2.931    -0.024    28.609     8.772
    21   6 C      2.979    -0.031    28.768     8.798
    22   6 C      2.833     0.220    23.363     7.921
    23   8 O      0.857    -0.392    21.513     6.219
    24   6 C      2.978    -0.032    28.786     8.801
    25   6 C      2.925    -0.012    28.321     8.727
    26   6 C      2.913    -0.033    28.810     8.802
    27   6 C      2.925    -0.012    28.321     8.727
    28   6 C      2.978    -0.032    28.787     8.801
    29   6 C      2.944     0.060    26.655     8.468
    30   1 H      0.926     0.068     2.112     2.273
    31   1 H      0.926     0.045     2.383     2.414
    32   1 H      0.926     0.044     2.394     2.420
    33   1 H      0.926     0.045     2.381     2.413
    34   1 H      0.926     0.044     2.391     2.418
    35   1 H      0.926     0.045     2.380     2.412
    36   1 H      0.926     0.038     2.480     2.463
    37   1 H      0.926     0.035     2.523     2.484
    38   1 H      0.926     0.033     2.542     2.493
    39   1 H      0.926     0.032     2.552     2.498
    40   1 H      0.926     0.031     2.568     2.506
    41   1 H      0.926     0.068     2.110     2.272
    42   1 H      0.926     0.070     2.082     2.256
    43   1 H      0.926     0.050     2.325     2.385
    44   1 H      0.926     0.070     2.081     2.256

 Mol. C6AA /au·bohr⁶  :      30375.047932
 Mol. C8AA /au·bohr⁸  :     778550.784465
 Mol. α(0) /au        :        280.860812


Wiberg/Mayer (AO) data.
largest (>0.10) Wiberg bond orders for each atom
          total WBO             WBO to atom ...
     1  O   2.027        C    2 1.736
     2  C   3.946        O    1 1.736    C    3 1.049    C   28 1.049
     3  C   3.980        C    4 1.363    C    8 1.317    C    2 1.049
     4  C   3.985        C    5 1.477    C    3 1.363    H   30 0.964    C    7 0.108
     5  C   3.980        C    4 1.477    C    6 1.396    H   31 0.970
     6  C   3.986        C    7 1.474    C    5 1.396    H   32 0.970
     7  C   3.984        C    6 1.474    C    8 1.353    H   33 0.964    C    4 0.108
     8  C   3.962        C    7 1.353    C    3 1.317    N    9 1.086
     9  N   3.609        C   29 1.136    C    8 1.086    C   10 1.084
    10  C   3.957        C   11 1.348    C   21 1.312    N    9 1.084
    11  C   3.983        C   12 1.484    C   10 1.348    H   34 0.963    C   20 0.102
    12  C   3.986        C   11 1.484    C   13 1.347    H   35 0.967
    13  C   3.978        C   20 1.419    C   12 1.347    C   14 1.049
    14  C   3.989        C   19 1.389    C   15 1.387    C   13 1.049    C   17 0.105
    15  C   3.988        C   16 1.453    C   14 1.387    H   36 0.968    C   18 0.109
    16  C   3.992        C   15 1.453    C   17 1.434    H   37 0.971    C   19 0.108
    17  C   3.986        C   18 1.435    C   16 1.434    H   38 0.971    C   14 0.105
    18  C   3.992        C   19 1.451    C   17 1.435    H   39 0.971    C   15 0.109
    19  C   3.989        C   18 1.451    C   14 1.389    H   40 0.968    C   16 0.108
    20  C   3.984        C   13 1.419    C   21 1.375    H   41 0.961    C   11 0.102
    21  C   3.980        C   20 1.375    C   10 1.312    C   22 1.048
    22  C   3.945        O   23 1.736    C   24 1.049    C   21 1.048
    23  O   2.028        C   22 1.736
    24  C   3.982        C   25 1.384    C   29 1.296    C   22 1.049
    25  C   3.982        C   26 1.440    C   24 1.384    H   42 0.964
    26  C   3.982        C   27 1.440    C   25 1.440    H   43 0.968
    27  C   3.982        C   26 1.440    C   28 1.383    H   44 0.964
    28  C   3.983        C   27 1.383    C   29 1.297    C    2 1.049
    29  C   3.965        C   28 1.297    C   24 1.296    N    9 1.136
    30  H   0.995        C    4 0.964
    31  H   0.997        C    5 0.970
    32  H   0.997        C    6 0.970
    33  H   0.997        C    7 0.964
    34  H   0.997        C   11 0.963
    35  H   0.997        C   12 0.967
    36  H   0.999        C   15 0.968
    37  H   0.998        C   16 0.971
    38  H   0.998        C   17 0.971
    39  H   0.998        C   18 0.971
    40  H   0.999        C   19 0.968
    41  H   0.995        C   20 0.961
    42  H   0.994        C   25 0.964
    43  H   0.996        C   26 0.968
    44  H   0.994        C   27 0.964

molecular dipole:
                 x           y           z       tot (Debye)
 q only:        0.870       1.272       0.170
   full:        0.926       1.426       0.204       4.353
molecular quadrupole (traceless):
                xx          xy          yy          xz          yz          zz
 q only:       -4.449       0.033       9.304      11.403      -2.537      -4.856
  q+dip:       -2.537       1.000       9.639      11.045       0.403      -7.102
   full:       -6.443      -0.096       9.694      14.697      -3.693      -3.251


           -------------------------------------------------
          | TOTAL ENERGY              -74.410469415595 Eh   |
          | GRADIENT NORM               0.000285424859 Eh/α |
          | HOMO-LUMO GAP               2.176851022828 eV   |
           -------------------------------------------------

------------------------------------------------------------------------
 * finished run on 2026/01/19 at 14:10:52.306     
------------------------------------------------------------------------
 total:
 * wall-time:     0 d,  0 h,  0 min,  0.533 sec
 *  cpu-time:     0 d,  0 h,  0 min,  0.172 sec
 * ratio c/w:     0.322 speedup
 SCF:
 * wall-time:     0 d,  0 h,  0 min,  0.111 sec
 *  cpu-time:     0 d,  0 h,  0 min,  0.111 sec
 * ratio c/w:     1.000 speedup


-------------------------   --------------------
FINAL SINGLE POINT ENERGY         0.000000000000
-------------------------   --------------------

                                *** OPTIMIZATION RUN DONE ***

Timings for individual modules:

Sum of individual times         ...       10.510 sec (=   0.175 min)
Geometry relaxation             ...        4.491 sec (=   0.075 min)  42.7 %
XTB module                      ...        6.019 sec (=   0.100 min)  57.3 %
                             ****ORCA TERMINATED NORMALLY****
TOTAL RUN TIME: 0 days 0 hours 0 minutes 14 seconds 924 msec
