 Entering Gaussian System, Link 0=g16
 Initial command:
 /appl/Gaussian16/AVX_revB01/g16/l1.exe "/home/junhkim/WORK/Review_DD/TADF-Design/data/td_dft/results/mol_332/Gau-2438864.inp" -scrdir="/home/junhkim/WORK/Review_DD/TADF-Design/data/td_dft/results/mol_332/"
 Entering Link 1 = /appl/Gaussian16/AVX_revB01/g16/l1.exe PID=   2438866.
  
 Copyright (c) 1988-2017, Gaussian, Inc.  All Rights Reserved.
  
 This is part of the Gaussian(R) 16 program.  It is based on
 the Gaussian(R) 09 system (copyright 2009, Gaussian, Inc.),
 the Gaussian(R) 03 system (copyright 2003, Gaussian, Inc.),
 the Gaussian(R) 98 system (copyright 1998, Gaussian, Inc.),
 the Gaussian(R) 94 system (copyright 1995, Gaussian, Inc.),
 the Gaussian 92(TM) system (copyright 1992, Gaussian, Inc.),
 the Gaussian 90(TM) system (copyright 1990, Gaussian, Inc.),
 the Gaussian 88(TM) system (copyright 1988, Gaussian, Inc.),
 the Gaussian 86(TM) system (copyright 1986, Carnegie Mellon
 University), and the Gaussian 82(TM) system (copyright 1983,
 Carnegie Mellon University). Gaussian is a federally registered
 trademark of Gaussian, Inc.
  
 This software contains proprietary and confidential information,
 including trade secrets, belonging to Gaussian, Inc.
  
 This software is provided under written license and may be
 used, copied, transmitted, or stored only in accord with that
 written license.
  
 The following legend is applicable only to US Government
 contracts under FAR:
  
                    RESTRICTED RIGHTS LEGEND
  
 Use, reproduction and disclosure by the US Government is
 subject to restrictions as set forth in subparagraphs (a)
 and (c) of the Commercial Computer Software - Restricted
 Rights clause in FAR 52.227-19.
  
 Gaussian, Inc.
 340 Quinnipiac St., Bldg. 40, Wallingford CT 06492
  
  
 ---------------------------------------------------------------
 Warning -- This program may not be used in any manner that
 competes with the business of Gaussian, Inc. or will provide
 assistance to any competitor of Gaussian, Inc.  The licensee
 of this program is prohibited from giving any competitor of
 Gaussian, Inc. access to this program.  By using this program,
 the user acknowledges that Gaussian, Inc. is engaged in the
 business of creating and licensing software in the field of
 computational chemistry and represents and warrants to the
 licensee that it is not a competitor of Gaussian, Inc. and that
 it will not use this program in any manner prohibited above.
 ---------------------------------------------------------------
  

 Cite this work as:
 Gaussian 16, Revision B.01,
 M. J. Frisch, G. W. Trucks, H. B. Schlegel, G. E. Scuseria, 
 M. A. Robb, J. R. Cheeseman, G. Scalmani, V. Barone, 
 G. A. Petersson, H. Nakatsuji, X. Li, M. Caricato, A. V. Marenich, 
 J. Bloino, B. G. Janesko, R. Gomperts, B. Mennucci, H. P. Hratchian, 
 J. V. Ortiz, A. F. Izmaylov, J. L. Sonnenberg, D. Williams-Young, 
 F. Ding, F. Lipparini, F. Egidi, J. Goings, B. Peng, A. Petrone, 
 T. Henderson, D. Ranasinghe, V. G. Zakrzewski, J. Gao, N. Rega, 
 G. Zheng, W. Liang, M. Hada, M. Ehara, K. Toyota, R. Fukuda, 
 J. Hasegawa, M. Ishida, T. Nakajima, Y. Honda, O. Kitao, H. Nakai, 
 T. Vreven, K. Throssell, J. A. Montgomery, Jr., J. E. Peralta, 
 F. Ogliaro, M. J. Bearpark, J. J. Heyd, E. N. Brothers, K. N. Kudin, 
 V. N. Staroverov, T. A. Keith, R. Kobayashi, J. Normand, 
 K. Raghavachari, A. P. Rendell, J. C. Burant, S. S. Iyengar, 
 J. Tomasi, M. Cossi, J. M. Millam, M. Klene, C. Adamo, R. Cammi, 
 J. W. Ochterski, R. L. Martin, K. Morokuma, O. Farkas, 
 J. B. Foresman, and D. J. Fox, Gaussian, Inc., Wallingford CT, 2016.
 
 ******************************************
 Gaussian 16:  ES64L-G16RevB.01 20-Dec-2017
                19-Jan-2026 
 ******************************************
 %OldChk=/home/junhkim/WORK/Review_DD/TADF-Design/data/td_dft/results/mol_332/opt
 .chk
 %nprocshared=16
 Will use up to   16 processors via shared memory.
 %mem=60GB
 Copying data from "/home/junhkim/WORK/Review_DD/TADF-Design/data/td_dft/results/mol_332/opt.chk" to current chk file "/home/junhkim/WORK/Review_DD/TADF-Design/data/td_dft/results/mol_332/Gau-2438866.chk"
 IOpt=  2 FromEx=T IUOpen= 4 IOptOp= 5 NList=   0 IFRang= 0 IUIn= 4 IUOut= 2.
 -----------------------------------------------------------------
 # b3lyp/6-31g* TD=(Nstates=1,50-50) Geom=Check Guess=Read SCF=XQC
 -----------------------------------------------------------------
 1/29=2,38=1,172=1/1;
 2/12=2,40=1/2;
 3/5=1,6=6,7=1,11=9,14=-4,25=1,30=1,74=-5,116=-2/1,2,3,8;
 4/5=1/1;
 5/5=2,8=3,13=1,38=6/2,8;
 8/6=1,10=2,108=1/1;
 9/41=1,42=1,48=2,70=2/14;
 6/7=2,8=2,9=2,10=2/1;
 99/5=1,9=1/99;
 ------------------
 TD-DFT calculation
 ------------------
 Structure from the checkpoint file:  "/home/junhkim/WORK/Review_DD/TADF-Design/data/td_dft/results/mol_332/Gau-2438866.chk"
 Charge =  0 Multiplicity = 1
 Redundant internal coordinates found in file.  (old form).
 O,0,-5.4890525198,-0.5939068538,1.5445105574
 C,0,-4.4032546848,-0.3921545027,1.0042622386
 C,0,-3.8031275433,0.9535962681,0.8947914642
 C,0,-4.5947482348,2.0724667133,1.199704961
 C,0,-4.1323698761,3.357772721,0.9702289161
 C,0,-2.8688807794,3.5293591686,0.3892862739
 C,0,-2.0619963052,2.4375468767,0.094363997
 C,0,-2.4983016657,1.1311854111,0.3854716726
 N,0,-1.6896751185,-0.0027683183,0.1142718399
 C,0,-0.2738254094,0.0596041176,0.0630595094
 C,0,0.4567528339,1.0300451157,0.7731339117
 C,0,1.8402589407,1.0750262475,0.6868121003
 C,0,2.5714771941,0.1574058114,-0.0950948356
 C,0,4.0501671829,0.2312338667,-0.1973891061
 C,0,4.7019851656,-0.0932515063,-1.3992631986
 C,0,6.0905530555,-0.0272149985,-1.5003432314
 C,0,6.8578780759,0.3666536198,-0.4025348084
 C,0,6.2240590117,0.6918891741,0.7980498593
 C,0,4.8354605968,0.6244944184,0.8995880201
 C,0,1.8437395614,-0.8410462646,-0.741073713
 C,0,0.4469015227,-0.9154964771,-0.6587337144
 C,0,-0.2340199867,-2.0960878918,-1.2317022585
 O,0,0.3381736832,-2.9063454456,-1.957840854
 C,0,-1.6266566234,-2.2762731678,-0.7774252167
 C,0,-2.2714045851,-3.4970247404,-1.0065808102
 C,0,-3.5737429239,-3.7186836919,-0.5683933803
 C,0,-4.246461719,-2.6985376209,0.097907337
 C,0,-3.6422843418,-1.4561337126,0.3209173644
 C,0,-2.3146306558,-1.2347898203,-0.1125395934
 H,0,-5.5865896926,1.8815519099,1.5967012888
 H,0,-4.7511142019,4.2184520753,1.2052791314
 H,0,-2.511393071,4.5265457926,0.1475239755
 H,0,-1.105014086,2.5971160533,-0.3857283939
 H,0,-0.0551758965,1.7428831263,1.406854553
 H,0,2.3678966035,1.8502589919,1.234717083
 H,0,4.1128821053,-0.3781849938,-2.2664409082
 H,0,6.5729185361,-0.276757461,-2.4416232398
 H,0,7.9402861316,0.418761019,-0.4815754646
 H,0,6.8122240399,0.9900055555,1.6619420228
 H,0,4.3575257435,0.8518681667,1.8485895698
 H,0,2.3408189596,-1.6287128488,-1.2978763398
 H,0,-1.7103071878,-4.2600557764,-1.5369522244
 H,0,-4.0580988526,-4.6743180603,-0.7437444126
 H,0,-5.2598319827,-2.8279720678,0.4648860567
 Recover connectivity data from disk.
                           ----------------------------
                           !    Current Parameters    !
                           ! (Angstroms and Degrees)  !
 --------------------------                            --------------------------
 ! Name  Definition              Value                                          !
 --------------------------------------------------------------------------------
 ! R1    R(1,2)                  1.2294                                         !
 ! R2    R(2,3)                  1.4776                                         !
 ! R3    R(2,28)                 1.4758                                         !
 ! R4    R(3,4)                  1.4041                                         !
 ! R5    R(3,8)                  1.4119                                         !
 ! R6    R(4,5)                  1.3851                                         !
 ! R7    R(4,30)                 1.0853                                         !
 ! R8    R(5,6)                  1.4012                                         !
 ! R9    R(5,31)                 1.0858                                         !
 ! R10   R(6,7)                  1.3893                                         !
 ! R11   R(6,32)                 1.0866                                         !
 ! R12   R(7,8)                  1.4077                                         !
 ! R13   R(7,33)                 1.0825                                         !
 ! R14   R(8,9)                  1.4189                                         !
 ! R15   R(9,10)                 1.4181                                         !
 ! R16   R(9,29)                 1.4                                            !
 ! R17   R(10,11)                1.407                                          !
 ! R18   R(10,21)                1.4111                                         !
 ! R19   R(11,12)                1.3869                                         !
 ! R20   R(11,34)                1.0825                                         !
 ! R21   R(12,13)                1.41                                           !
 ! R22   R(12,35)                1.0861                                         !
 ! R23   R(13,14)                1.4841                                         !
 ! R24   R(13,20)                1.3942                                         !
 ! R25   R(14,15)                1.4052                                         !
 ! R26   R(14,19)                1.4052                                         !
 ! R27   R(15,16)                1.3938                                         !
 ! R28   R(15,36)                1.0864                                         !
 ! R29   R(16,17)                1.3961                                         !
 ! R30   R(16,37)                1.0867                                         !
 ! R31   R(17,18)                1.396                                          !
 ! R32   R(17,38)                1.0865                                         !
 ! R33   R(18,19)                1.3939                                         !
 ! R34   R(18,39)                1.0868                                         !
 ! R35   R(19,40)                1.0866                                         !
 ! R36   R(20,21)                1.4012                                         !
 ! R37   R(20,41)                1.0851                                         !
 ! R38   R(21,22)                1.4784                                         !
 ! R39   R(22,23)                1.2293                                         !
 ! R40   R(22,24)                1.4759                                         !
 ! R41   R(24,25)                1.3994                                         !
 ! R42   R(24,29)                1.4142                                         !
 ! R43   R(25,26)                1.3918                                         !
 ! R44   R(25,42)                1.0855                                         !
 ! R45   R(26,27)                1.3918                                         !
 ! R46   R(26,43)                1.0856                                         !
 ! R47   R(27,28)                1.3994                                         !
 ! R48   R(27,44)                1.0855                                         !
 ! R49   R(28,29)                1.4141                                         !
 ! A1    A(1,2,3)              122.733                                          !
 ! A2    A(1,2,28)             122.7201                                         !
 ! A3    A(3,2,28)             114.3866                                         !
 ! A4    A(2,3,4)              118.7307                                         !
 ! A5    A(2,3,8)              121.107                                          !
 ! A6    A(4,3,8)              119.9428                                         !
 ! A7    A(3,4,5)              121.0153                                         !
 ! A8    A(3,4,30)             117.0338                                         !
 ! A9    A(5,4,30)             121.9336                                         !
 ! A10   A(4,5,6)              118.9041                                         !
 ! A11   A(4,5,31)             120.6299                                         !
 ! A12   A(6,5,31)             120.4346                                         !
 ! A13   A(5,6,7)              121.0304                                         !
 ! A14   A(5,6,32)             120.0865                                         !
 ! A15   A(7,6,32)             118.8762                                         !
 ! A16   A(6,7,8)              120.3572                                         !
 ! A17   A(6,7,33)             119.4564                                         !
 ! A18   A(8,7,33)             120.1665                                         !
 ! A19   A(3,8,7)              118.5383                                         !
 ! A20   A(3,8,9)              119.6762                                         !
 ! A21   A(7,8,9)              121.7003                                         !
 ! A22   A(8,9,10)             122.7331                                         !
 ! A23   A(8,9,29)             118.6768                                         !
 ! A24   A(10,9,29)            118.5901                                         !
 ! A25   A(9,10,11)            122.0397                                         !
 ! A26   A(9,10,21)            119.8678                                         !
 ! A27   A(11,10,21)           118.0044                                         !
 ! A28   A(10,11,12)           120.5917                                         !
 ! A29   A(10,11,34)           120.2697                                         !
 ! A30   A(12,11,34)           119.1322                                         !
 ! A31   A(11,12,13)           122.0545                                         !
 ! A32   A(11,12,35)           118.4485                                         !
 ! A33   A(13,12,35)           119.4946                                         !
 ! A34   A(12,13,14)           121.5047                                         !
 ! A35   A(12,13,20)           116.892                                          !
 ! A36   A(14,13,20)           121.5858                                         !
 ! A37   A(13,14,15)           120.6399                                         !
 ! A38   A(13,14,19)           121.1261                                         !
 ! A39   A(15,14,19)           118.234                                          !
 ! A40   A(14,15,16)           120.8769                                         !
 ! A41   A(14,15,36)           119.4555                                         !
 ! A42   A(16,15,36)           119.654                                          !
 ! A43   A(15,16,17)           120.2579                                         !
 ! A44   A(15,16,37)           119.6131                                         !
 ! A45   A(17,16,37)           120.1272                                         !
 ! A46   A(16,17,18)           119.501                                          !
 ! A47   A(16,17,38)           120.2555                                         !
 ! A48   A(18,17,38)           120.2435                                         !
 ! A49   A(17,18,19)           120.2422                                         !
 ! A50   A(17,18,39)           120.1197                                         !
 ! A51   A(19,18,39)           119.6355                                         !
 ! A52   A(14,19,18)           120.8879                                         !
 ! A53   A(14,19,40)           119.6391                                         !
 ! A54   A(18,19,40)           119.4495                                         !
 ! A55   A(13,20,21)           122.0837                                         !
 ! A56   A(13,20,41)           121.2292                                         !
 ! A57   A(21,20,41)           116.6297                                         !
 ! A58   A(10,21,20)           120.1646                                         !
 ! A59   A(10,21,22)           120.9844                                         !
 ! A60   A(20,21,22)           118.6057                                         !
 ! A61   A(21,22,23)           122.7436                                         !
 ! A62   A(21,22,24)           114.3804                                         !
 ! A63   A(23,22,24)           122.7208                                         !
 ! A64   A(22,24,25)           119.3946                                         !
 ! A65   A(22,24,29)           120.9186                                         !
 ! A66   A(25,24,29)           119.6866                                         !
 ! A67   A(24,25,26)           121.2289                                         !
 ! A68   A(24,25,42)           117.0668                                         !
 ! A69   A(26,25,42)           121.7041                                         !
 ! A70   A(25,26,27)           119.0936                                         !
 ! A71   A(25,26,43)           120.4508                                         !
 ! A72   A(27,26,43)           120.4556                                         !
 ! A73   A(26,27,28)           121.2207                                         !
 ! A74   A(26,27,44)           121.7123                                         !
 ! A75   A(28,27,44)           117.0669                                         !
 ! A76   A(2,28,27)            119.4212                                         !
 ! A77   A(2,28,29)            120.8772                                         !
 ! A78   A(27,28,29)           119.7014                                         !
 ! A79   A(9,29,24)            120.4703                                         !
 ! A80   A(9,29,28)            120.4792                                         !
 ! A81   A(24,29,28)           119.0504                                         !
 ! D1    D(1,2,3,4)            -11.6272                                         !
 ! D2    D(1,2,3,8)            173.7592                                         !
 ! D3    D(28,2,3,4)           163.8818                                         !
 ! D4    D(28,2,3,8)           -10.7318                                         !
 ! D5    D(1,2,28,27)            9.6338                                         !
 ! D6    D(1,2,28,29)         -170.504                                          !
 ! D7    D(3,2,28,27)         -165.8759                                         !
 ! D8    D(3,2,28,29)           13.9864                                         !
 ! D9    D(2,3,4,5)           -172.6573                                         !
 ! D10   D(2,3,4,30)             5.8555                                         !
 ! D11   D(8,3,4,5)              2.0206                                         !
 ! D12   D(8,3,4,30)          -179.4666                                         !
 ! D13   D(2,3,8,7)            169.5072                                         !
 ! D14   D(2,3,8,9)             -7.1961                                         !
 ! D15   D(4,3,8,7)             -5.0417                                         !
 ! D16   D(4,3,8,9)            178.255                                          !
 ! D17   D(3,4,5,6)              1.8243                                         !
 ! D18   D(3,4,5,31)           179.7943                                         !
 ! D19   D(30,4,5,6)          -176.6148                                         !
 ! D20   D(30,4,5,31)            1.3553                                         !
 ! D21   D(4,5,6,7)             -2.604                                          !
 ! D22   D(4,5,6,32)           176.4355                                         !
 ! D23   D(31,5,6,7)           179.4219                                         !
 ! D24   D(31,5,6,32)           -1.5387                                         !
 ! D25   D(5,6,7,8)             -0.4947                                         !
 ! D26   D(5,6,7,33)           177.8862                                         !
 ! D27   D(32,6,7,8)          -179.5455                                         !
 ! D28   D(32,6,7,33)           -1.1647                                         !
 ! D29   D(6,7,8,3)              4.2963                                         !
 ! D30   D(6,7,8,9)           -179.0703                                         !
 ! D31   D(33,7,8,3)          -174.073                                          !
 ! D32   D(33,7,8,9)             2.5603                                         !
 ! D33   D(3,8,9,10)          -157.1479                                         !
 ! D34   D(3,8,9,29)            22.8632                                         !
 ! D35   D(7,8,9,10)            26.2563                                         !
 ! D36   D(7,8,9,29)          -153.7327                                         !
 ! D37   D(8,9,10,11)           26.4169                                         !
 ! D38   D(8,9,10,21)         -157.0647                                         !
 ! D39   D(29,9,10,11)        -153.5941                                         !
 ! D40   D(29,9,10,21)          22.9242                                         !
 ! D41   D(8,9,29,24)          160.385                                          !
 ! D42   D(8,9,29,28)          -19.673                                          !
 ! D43   D(10,9,29,24)         -19.6044                                         !
 ! D44   D(10,9,29,28)         160.3376                                         !
 ! D45   D(9,10,11,12)        -179.1049                                         !
 ! D46   D(9,10,11,34)           1.8268                                         !
 ! D47   D(21,10,11,12)          4.3146                                         !
 ! D48   D(21,10,11,34)       -174.7537                                         !
 ! D49   D(9,10,21,20)         178.4171                                         !
 ! D50   D(9,10,21,22)          -7.3524                                         !
 ! D51   D(11,10,21,20)         -4.9255                                         !
 ! D52   D(11,10,21,22)        169.305                                          !
 ! D53   D(10,11,12,13)         -0.5663                                         !
 ! D54   D(10,11,12,35)        178.864                                          !
 ! D55   D(34,11,12,13)        178.5125                                         !
 ! D56   D(34,11,12,35)         -2.0572                                         !
 ! D57   D(11,12,13,14)        178.9262                                         !
 ! D58   D(11,12,13,20)         -2.5724                                         !
 ! D59   D(35,12,13,14)         -0.4983                                         !
 ! D60   D(35,12,13,20)        178.003                                          !
 ! D61   D(12,13,14,15)       -144.7157                                         !
 ! D62   D(12,13,14,19)         35.3427                                         !
 ! D63   D(20,13,14,15)         36.8533                                         !
 ! D64   D(20,13,14,19)       -143.0883                                         !
 ! D65   D(12,13,20,21)          1.9239                                         !
 ! D66   D(12,13,20,41)       -175.2281                                         !
 ! D67   D(14,13,20,21)       -179.576                                          !
 ! D68   D(14,13,20,41)          3.2719                                         !
 ! D69   D(13,14,15,16)       -179.9204                                         !
 ! D70   D(13,14,15,36)          1.4266                                         !
 ! D71   D(19,14,15,16)          0.0228                                         !
 ! D72   D(19,14,15,36)       -178.6302                                         !
 ! D73   D(13,14,19,18)        179.9885                                         !
 ! D74   D(13,14,19,40)          1.7611                                         !
 ! D75   D(15,14,19,18)          0.0456                                         !
 ! D76   D(15,14,19,40)       -178.1819                                         !
 ! D77   D(14,15,16,17)         -0.0964                                         !
 ! D78   D(14,15,16,37)       -179.6209                                         !
 ! D79   D(36,15,16,17)        178.554                                          !
 ! D80   D(36,15,16,37)         -0.9706                                         !
 ! D81   D(15,16,17,18)          0.1007                                         !
 ! D82   D(15,16,17,38)       -179.9588                                         !
 ! D83   D(37,16,17,18)        179.6228                                         !
 ! D84   D(37,16,17,38)         -0.4367                                         !
 ! D85   D(16,17,18,19)         -0.0327                                         !
 ! D86   D(16,17,18,39)        179.3779                                         !
 ! D87   D(38,17,18,19)       -179.9732                                         !
 ! D88   D(38,17,18,39)         -0.5626                                         !
 ! D89   D(17,18,19,14)         -0.0408                                         !
 ! D90   D(17,18,19,40)        178.19                                           !
 ! D91   D(39,18,19,14)       -179.4543                                         !
 ! D92   D(39,18,19,40)         -1.2236                                         !
 ! D93   D(13,20,21,10)          1.8344                                         !
 ! D94   D(13,20,21,22)       -172.5321                                         !
 ! D95   D(41,20,21,10)        179.1102                                         !
 ! D96   D(41,20,21,22)          4.7437                                         !
 ! D97   D(10,21,22,23)        173.8145                                         !
 ! D98   D(10,21,22,24)        -10.6047                                         !
 ! D99   D(20,21,22,23)        -11.867                                          !
 ! D100  D(20,21,22,24)        163.7138                                         !
 ! D101  D(21,22,24,25)       -165.8912                                         !
 ! D102  D(21,22,24,29)         13.9576                                         !
 ! D103  D(23,22,24,25)          9.6907                                         !
 ! D104  D(23,22,24,29)       -170.4605                                         !
 ! D105  D(22,24,25,26)        178.5632                                         !
 ! D106  D(22,24,25,42)         -1.2757                                         !
 ! D107  D(29,24,25,26)         -1.2875                                         !
 ! D108  D(29,24,25,42)        178.8736                                         !
 ! D109  D(22,24,29,9)           0.7452                                         !
 ! D110  D(22,24,29,28)       -179.1976                                         !
 ! D111  D(25,24,29,9)        -179.4064                                         !
 ! D112  D(25,24,29,28)          0.6507                                         !
 ! D113  D(24,25,26,27)          0.6392                                         !
 ! D114  D(24,25,26,43)       -179.3467                                         !
 ! D115  D(42,25,26,27)       -179.5294                                         !
 ! D116  D(42,25,26,43)          0.4846                                         !
 ! D117  D(25,26,27,28)          0.6509                                         !
 ! D118  D(25,26,27,44)       -179.4947                                         !
 ! D119  D(43,26,27,28)       -179.3631                                         !
 ! D120  D(43,26,27,44)          0.4912                                         !
 ! D121  D(26,27,28,2)         178.5964                                         !
 ! D122  D(26,27,28,29)         -1.2675                                         !
 ! D123  D(44,27,28,2)          -1.2645                                         !
 ! D124  D(44,27,28,29)        178.8717                                         !
 ! D125  D(2,28,29,9)            0.7949                                         !
 ! D126  D(2,28,29,24)        -179.2623                                         !
 ! D127  D(27,28,29,9)        -179.3433                                         !
 ! D128  D(27,28,29,24)          0.5996                                         !
 --------------------------------------------------------------------------------
                          Input orientation:                          
 ---------------------------------------------------------------------
 Center     Atomic      Atomic             Coordinates (Angstroms)
 Number     Number       Type             X           Y           Z
 ---------------------------------------------------------------------
      1          8           0       -5.489053   -0.593907    1.544511
      2          6           0       -4.403255   -0.392155    1.004262
      3          6           0       -3.803128    0.953596    0.894791
      4          6           0       -4.594748    2.072467    1.199705
      5          6           0       -4.132370    3.357773    0.970229
      6          6           0       -2.868881    3.529359    0.389286
      7          6           0       -2.061996    2.437547    0.094364
      8          6           0       -2.498302    1.131185    0.385472
      9          7           0       -1.689675   -0.002768    0.114272
     10          6           0       -0.273825    0.059604    0.063060
     11          6           0        0.456753    1.030045    0.773134
     12          6           0        1.840259    1.075026    0.686812
     13          6           0        2.571477    0.157406   -0.095095
     14          6           0        4.050167    0.231234   -0.197389
     15          6           0        4.701985   -0.093252   -1.399263
     16          6           0        6.090553   -0.027215   -1.500343
     17          6           0        6.857878    0.366654   -0.402535
     18          6           0        6.224059    0.691889    0.798050
     19          6           0        4.835461    0.624494    0.899588
     20          6           0        1.843740   -0.841046   -0.741074
     21          6           0        0.446902   -0.915496   -0.658734
     22          6           0       -0.234020   -2.096088   -1.231702
     23          8           0        0.338174   -2.906345   -1.957841
     24          6           0       -1.626657   -2.276273   -0.777425
     25          6           0       -2.271405   -3.497025   -1.006581
     26          6           0       -3.573743   -3.718684   -0.568393
     27          6           0       -4.246462   -2.698538    0.097907
     28          6           0       -3.642284   -1.456134    0.320917
     29          6           0       -2.314631   -1.234790   -0.112540
     30          1           0       -5.586590    1.881552    1.596701
     31          1           0       -4.751114    4.218452    1.205279
     32          1           0       -2.511393    4.526546    0.147524
     33          1           0       -1.105014    2.597116   -0.385728
     34          1           0       -0.055176    1.742883    1.406855
     35          1           0        2.367897    1.850259    1.234717
     36          1           0        4.112882   -0.378185   -2.266441
     37          1           0        6.572919   -0.276757   -2.441623
     38          1           0        7.940286    0.418761   -0.481575
     39          1           0        6.812224    0.990006    1.661942
     40          1           0        4.357526    0.851868    1.848590
     41          1           0        2.340819   -1.628713   -1.297876
     42          1           0       -1.710307   -4.260056   -1.536952
     43          1           0       -4.058099   -4.674318   -0.743744
     44          1           0       -5.259832   -2.827972    0.464886
 ---------------------------------------------------------------------
                    Distance matrix (angstroms):
                    1          2          3          4          5
     1  O    0.000000
     2  C    1.229443   0.000000
     3  C    2.378917   1.477559   0.000000
     4  C    2.833411   2.479763   1.404103   0.000000
     5  C    4.217364   3.759853   2.427788   1.385086   0.000000
     6  C    5.020076   4.255675   2.786199   2.399569   1.401193
     7  C    4.799724   3.783730   2.423702   2.787453   2.429074
     8  C    3.641964   2.516409   1.411919   2.438047   2.823085
     9  N    4.102474   2.882225   2.447555   3.731516   4.241775
    10  C    5.460803   4.259358   3.734565   4.900403   5.156475
    11  C    6.211670   5.069097   4.262303   5.175545   5.149486
    12  C    7.565698   6.421437   5.648523   6.532018   6.400277
    13  C    8.259838   7.082195   6.499952   7.529857   7.504587
    14  C    9.731998   8.561128   7.961715   8.948551   8.836996
    15  C   10.619497   9.421872   8.871050   9.893140   9.775985
    16  C   11.986640  10.794732  10.226611  11.219384  11.048530
    17  C   12.536361  11.374005  10.755677  11.689295  11.472438
    18  C   11.807093  10.684450  10.031068  10.913932  10.695429
    19  C   10.416141   9.295074   8.644856   9.545446   9.375382
    20  C    7.684713   6.501741   6.146861   7.328663   7.501501
    21  C    6.339815   5.153975   4.895886   6.148166   6.471791
    22  C    6.130194   5.028463   5.153744   6.504194   7.056219
    23  O    7.181254   6.129955   6.339325   7.687157   8.233986
    24  C    4.810389   3.799185   4.238560   5.624069   6.409007
    25  C    5.028859   4.269484   5.076359   6.425329   7.372870
    26  C    4.230485   3.771887   4.901401   6.140525   7.263309
    27  C    2.840099   2.483036   3.764260   4.908945   6.119874
    28  C    2.377219   1.475835   2.482338   3.759053   4.882160
    29  C    3.637788   2.513888   2.831850   4.225975   5.056500
    30  H    2.477929   2.630781   2.129440   1.085267   2.164821
    31  H    4.880413   4.628078   3.413849   2.151682   1.085754
    32  H    6.085808   5.339172   3.872074   3.386733   2.161120
    33  H    5.755714   4.663282   3.408915   3.868734   3.403249
    34  H    5.916633   4.860685   3.864237   4.556232   4.407042
    35  H    8.234171   7.136527   6.245085   6.966278   6.678025
    36  H   10.332814   9.122625   8.627296   9.687244   9.613407
    37  H   12.707517  11.504948  10.968490  11.978936  11.809054
    38  H   13.619018  12.459065  11.835886  12.754942  12.509778
    39  H   12.403386  11.319447  10.643098  11.467537  11.219132
    40  H    9.956798   8.888856   8.216833   9.058373   8.895471
    41  H    8.393859   7.232665   7.015995   8.248560   8.480066
    42  H    6.100408   5.354475   6.121719   7.477308   8.377569
    43  H    4.892187   4.638058   5.867131   7.041597   8.213264
    44  H    2.491822   2.637775   4.075177   4.999660   6.307930
                    6          7          8          9         10
     6  C    0.000000
     7  C    1.389279   0.000000
     8  C    2.426640   1.407724   0.000000
     9  N    3.733910   2.468635   1.418900   0.000000
    10  C    4.345105   2.975424   2.490086   1.418148   0.000000
    11  C    4.177768   2.964100   2.982090   2.471428   1.407020
    12  C    5.318672   4.175530   4.349376   3.734954   2.426830
    13  C    6.418893   5.167593   5.184771   4.269298   2.851372
    14  C    7.687330   6.504727   6.635668   5.753058   4.335228
    15  C    8.581388   7.374775   7.518554   6.569041   5.188491
    16  C    9.823002   8.664999   8.869420   7.946039   6.554165
    17  C   10.258632   9.170587   9.420380   8.571128   7.153478
    18  C    9.534143   8.497129   8.743156   7.973537   6.569817
    19  C    8.249577   7.177079   7.369201   6.602089   5.208040
    20  C    6.525868   5.167388   4.900217   3.730864   2.437598
    21  C    5.643536   4.254953   3.735438   2.448585   1.411118
    22  C    6.419949   5.064957   4.261164   2.883152   2.514955
    23  O    7.563894   6.207217   5.462450   4.103240   3.640802
    24  C    6.050595   4.813485   3.704439   2.442933   2.827170
    25  C    7.188567   6.039460   4.838349   3.715447   4.217115
    26  C    7.344937   6.373680   5.058425   4.221821   5.056051
    27  C    6.385086   5.581332   4.219661   3.715454   4.836362
    28  C    5.045589   4.208252   2.829679   2.442879   3.702765
    29  C    4.822462   3.686827   2.424786   1.399961   2.423051
    30  H    3.399862   3.871551   3.401125   4.575391   5.822114
    31  H    2.164139   3.411321   3.908768   5.327420   6.216655
    32  H    1.086567   2.137452   3.403713   4.603370   4.996740
    33  H    2.140316   1.082481   2.164475   2.711315   2.707628
    34  H    3.484807   2.496501   2.717768   2.718392   2.164953
    35  H    5.563988   4.611861   4.991810   4.599239   3.399694
    36  H    8.430113   7.185462   7.281387   6.283184   4.986124
    37  H   10.566369   9.400023   9.605301   8.653215   7.298252
    38  H   11.281503  10.220218  10.498735   9.657581   8.239979
    39  H   10.089190   9.127128   9.398681   8.698458   7.323535
    40  H    7.843435   6.841195   7.015775   6.348772   5.026451
    41  H    7.522845   6.152852   5.819604   4.569764   3.396899
    42  H    8.107260   6.902373   5.777727   4.566340   4.825244
    43  H    8.366500   7.434075   6.116532   5.307448   6.114056
    44  H    6.792498   6.171639   4.827762   4.566260   5.775796
                   11         12         13         14         15
    11  C    0.000000
    12  C    1.386926   0.000000
    13  C    2.446912   1.409995   0.000000
    14  C    3.806920   2.525370   1.484062   0.000000
    15  C    4.899296   3.729083   2.510528   1.405226   0.000000
    16  C    6.166539   4.905465   3.793772   2.434679   1.393807
    17  C    6.541918   5.183143   4.302504   2.818451   2.419267
    18  C    5.777265   4.401917   3.797991   2.434935   2.785918
    19  C    4.399266   3.036361   2.516582   1.405240   2.411989
    20  C    2.778046   2.389603   1.394201   2.512708   3.026876
    21  C    2.415673   2.777430   2.445942   3.809377   4.396613
    22  C    3.777465   4.247269   3.773715   4.984023   5.329501
    23  O    4.792437   5.010167   4.224221   5.169380   5.221911
    24  C    4.204351   5.039316   4.900275   6.233006   6.723390
    25  C    5.577149   6.377853   6.135077   7.383561   7.769687
    26  C    6.371422   7.339388   7.280921   8.594388   9.073135
    27  C    6.039742   7.185733   7.394454   8.803682   9.439478
    28  C    4.815360   6.049705   6.433305   7.892380   8.628053
    29  C    3.687067   4.820510   5.080607   6.532004   7.224380
    30  H    6.158353   7.525720   8.508167   9.940291  10.896349
    31  H    6.121647   7.320938   8.473690   9.763603  10.711467
    32  H    4.628909   5.580385   6.706998   7.850015   8.704476
    33  H    2.497557   3.484499   4.421905   5.675277   6.479705
    34  H    1.082502   2.134752   3.415977   4.659670   5.820332
    35  H    2.130324   1.086088   2.162313   2.739015   4.020330
    36  H    4.958771   3.999793   2.716161   2.157846   1.086382
    37  H    7.032061   5.832023   4.658994   3.414516   2.149554
    38  H    7.612571   6.245490   5.389043   3.904991   3.404541
    39  H    6.417445   5.067400   4.665226   3.414938   3.872665
    40  H    4.050232   2.781395   2.729497   2.160020   3.400066
    41  H    3.861060   3.391129   2.165665   2.755421   2.818338
    42  H    6.165859   6.783417   6.318750   7.426249   7.648445
    43  H    7.431323   8.360148   8.229069   9.492467   9.907318
    44  H    6.903525   8.105180   8.399730   9.822089  10.497216
                   16         17         18         19         20
    16  C    0.000000
    17  C    1.396103   0.000000
    18  C    2.411959   1.396033   0.000000
    19  C    2.785615   2.419128   1.393936   0.000000
    20  C    4.390243   5.168630   4.889375   3.713486   0.000000
    21  C    5.774786   6.542948   6.171017   4.905037   1.401242
    22  C    6.659777   7.552988   7.321168   6.135438   2.476475
    23  O    6.448920   7.459091   7.428719   6.391973   2.830673
    24  C    8.070700   8.894545   8.539663   7.279134   3.755642
    25  C    9.066737   9.931600   9.642437   8.433738   4.905010
    26  C   10.387208  11.204294  10.831308   9.577728   6.136753
    27  C   10.795566  11.530490  11.028010   9.703945   6.422205
    28  C   10.004345  10.681730  10.108728   8.748487   5.621620
    29  C    8.604147   9.315773   8.800596   7.456886   4.223995
    30  H   12.230729  12.694749  11.897250  10.520708   8.251517
    31  H   11.953570  12.336536  11.535030  10.242675   8.536914
    32  H    9.871458  10.265988   9.562212   8.352716   6.969062
    33  H    7.739875   8.269395   7.664629   6.390032   4.543388
    34  H    7.025314   7.277239   6.395625   5.042463   3.859555
    35  H    4.986345   5.004159   4.049998   2.775551   3.379588
    36  H    2.149713   3.400578   3.872109   3.398709   2.773084
    37  H    1.086718   2.157096   3.399332   3.872300   5.057215
    38  H    2.158308   1.086540   2.158119   3.404391   6.230757
    39  H    3.399352   2.157016   1.086794   2.149971   5.814901
    40  H    3.871889   3.399229   2.147830   1.086611   3.986406
    41  H    4.082437   5.018660   4.985745   4.016096   1.085143
    42  H    8.875342   9.803425   9.639925   8.523065   4.995428
    43  H   11.187634  12.028565  11.700260  10.482049   7.037448
    44  H   11.854856  12.561726  12.015830  10.678175   7.474152
                   21         22         23         24         25
    21  C    0.000000
    22  C    1.478426   0.000000
    23  O    2.379702   1.229309   0.000000
    24  C    2.483031   1.475897   2.377169   0.000000
    25  C    3.764900   2.482789   2.839665   1.399445   0.000000
    26  C    4.902204   3.771809   4.230077   2.432157   1.391843
    27  C    5.077342   4.269718   5.028734   2.794261   2.399651
    28  C    4.239510   3.799531   4.810395   2.437569   2.794065
    29  C    2.833079   2.514617   3.638215   1.414238   2.432876
    30  H    7.022356   7.243721   8.406043   6.213297   6.833492
    31  H    7.539983   8.137348   9.309614   7.474945   8.400587
    32  H    6.246390   7.137785   8.234104   6.922184   8.109700
    33  H    3.849860   4.847728   5.902747   4.916855   6.235742
    34  H    3.403780   4.661723   5.752497   4.836760   6.180046
    35  H    3.863260   5.331683   6.077622   6.085511   7.425630
    36  H    4.038916   4.787215   4.553598   6.225931   7.216199
    37  H    6.412080   7.149006   6.783865   8.602363   9.521109
    38  H    7.613307   8.585245   8.427800   9.943698  10.949321
    39  H    7.038026   8.218680   8.378407   9.371969  10.476963
    40  H    4.970234   6.265855   6.690910   7.245113   8.426600
    41  H    2.122287   2.617750   2.465459   4.053525   4.984782
    42  H    4.075646   2.637301   2.491175   2.125858   1.085514
    43  H    5.867793   4.637775   4.891520   3.415211   2.155778
    44  H    6.122654   5.354704   6.100280   3.879133   3.397579
                   26         27         28         29         30
    26  C    0.000000
    27  C    1.391835   0.000000
    28  C    2.432016   1.399404   0.000000
    29  C    2.821860   2.432862   1.414052   0.000000
    30  H    6.332600   5.001954   4.067935   4.831025   0.000000
    31  H    8.217679   7.023225   5.849147   6.116449   2.512436
    32  H    8.344156   7.430663   6.091095   5.770558   4.307313
    33  H    6.783606   6.176289   4.833831   4.027568   4.952432
    34  H    6.790481   6.245513   4.927506   4.034877   5.536408
    35  H    8.340708   8.107627   6.920227   5.767035   7.962780
    36  H    8.551403   8.991819   8.246151   6.832714  10.682230
    37  H   10.877067  11.374235  10.647672   9.237477  12.993075
    38  H   12.235148  12.592465  11.760747  10.393928  13.763552
    39  H   11.619572  11.762061  10.820291   9.560229  12.430997
    40  H    9.467670   9.470949   8.465082   7.260705  10.000456
    41  H    6.315233   6.817991   6.200629   4.820105   9.140260
    42  H    2.168774   3.397526   3.878942   3.397998   7.909785
    43  H    1.085627   2.155822   3.415131   3.907487   7.126949
    44  H    2.168855   1.085516   2.125824   3.397920   4.854626
                   31         32         33         34         35
    31  H    0.000000
    32  H    2.496021   0.000000
    33  H    4.295821   2.446418   0.000000
    34  H    5.312336   3.920165   2.246158   0.000000
    35  H    7.502634   5.670271   3.904452   2.431551   0.000000
    36  H   10.571298   8.588634   6.294119   5.946826   4.502116
    37  H   12.717725  10.597175   8.452012   7.925993   5.976779
    38  H   13.354953  11.247545   9.304401   8.321471   6.003863
    39  H   12.014250  10.086150   8.334172   6.913254   4.546933
    40  H    9.732166   7.973639   6.154462   4.523381   2.309166
    41  H    9.526313   7.969966   5.528418   4.942066   4.303255
    42  H    9.415489   8.982403   6.979434   6.887723   7.851741
    43  H    9.130187   9.372436   7.856376   7.863138   9.368983
    44  H    7.103455   7.857708   6.886047   6.990598   8.981132
                   36         37         38         39         40
    36  H    0.000000
    37  H    2.468351   0.000000
    38  H    4.297661   2.489021   0.000000
    39  H    4.958889   4.301303   2.488677   0.000000
    40  H    4.301902   4.958597   4.295745   2.465657   0.000000
    41  H    2.375320   4.587658   6.017685   5.967552   4.485603
    42  H    7.036377   9.235633  10.776785  10.508549   8.626254
    43  H    9.356297  11.629267  13.037232  12.491429  10.396233
    44  H   10.065256  12.448714  13.626452  12.717878  10.389871
                   41         42         43         44
    41  H    0.000000
    42  H    4.836605   0.000000
    43  H    7.108370   2.512552   0.000000
    44  H    7.894013   4.319415   2.512756   0.000000
 Stoichiometry    C26H15NO2
 Framework group  C1[X(C26H15NO2)]
 Deg. of freedom   126
 Full point group                 C1      NOp   1
 Largest Abelian subgroup         C1      NOp   1
 Largest concise Abelian subgroup C1      NOp   1
                         Standard orientation:                         
 ---------------------------------------------------------------------
 Center     Atomic      Atomic             Coordinates (Angstroms)
 Number     Number       Type             X           Y           Z
 ---------------------------------------------------------------------
      1          8           0        5.322041   -0.111960    1.068914
      2          6           0        4.182318   -0.127295    0.608128
      3          6           0        3.524547   -1.366514    0.144602
      4          6           0        4.299571   -2.528290   -0.000724
      5          6           0        3.769463   -3.672918   -0.572806
      6          6           0        2.450198   -3.645897   -1.044134
      7          6           0        1.659947   -2.512874   -0.896290
      8          6           0        2.170868   -1.367619   -0.256732
      9          7           0        1.382753   -0.202102   -0.073093
     10          6           0       -0.032752   -0.238118    0.005597
     11          6           0       -0.727005   -1.379610    0.446862
     12          6           0       -2.113085   -1.388189    0.494524
     13          6           0       -2.881673   -0.266908    0.120242
     14          6           0       -4.365047   -0.297340    0.153632
     15          6           0       -5.117434    0.393534   -0.811389
     16          6           0       -6.510763    0.369667   -0.783740
     17          6           0       -7.182528   -0.347155    0.208228
     18          6           0       -6.448196   -1.038245    1.173660
     19          6           0       -5.054742   -1.013234    1.146867
     20          6           0       -2.183001    0.880918   -0.251443
     21          6           0       -0.782944    0.918649   -0.294996
     22          6           0       -0.116970    2.216436   -0.535764
     23          8           0       -0.726011    3.217451   -0.907571
     24          6           0        1.318821    2.236966   -0.194658
     25          6           0        1.983559    3.464384   -0.094582
     26          6           0        3.329533    3.529790    0.253704
     27          6           0        4.024927    2.348060    0.492756
     28          6           0        3.399137    1.101842    0.375884
     29          6           0        2.028454    1.035364    0.034782
     30          1           0        5.331589   -2.477505    0.331186
     31          1           0        4.375436   -4.566808   -0.685139
     32          1           0        2.033995   -4.513808   -1.548251
     33          1           0        0.655738   -2.507833   -1.300400
     34          1           0       -0.183200   -2.258696    0.768257
     35          1           0       -2.613876   -2.294231    0.822982
     36          1           0       -4.604702    0.935000   -1.601419
     37          1           0       -7.072214    0.906253   -1.543874
     38          1           0       -8.268695   -0.366281    0.229349
     39          1           0       -6.960805   -1.591184    1.956355
     40          1           0       -4.496122   -1.531205    1.921704
     41          1           0       -2.701803    1.806617   -0.478296
     42          1           0        1.402719    4.358672   -0.297591
     43          1           0        3.830038    4.489467    0.337966
     44          1           0        5.073158    2.349897    0.774811
 ---------------------------------------------------------------------
 Rotational constants (GHZ):           0.3244911           0.0980834           0.0788028
 Standard basis: 6-31G(d) (6D, 7F)
 There are   465 symmetry adapted cartesian basis functions of A   symmetry.
 There are   465 symmetry adapted basis functions of A   symmetry.
   465 basis functions,   872 primitive gaussians,   465 cartesian basis functions
    97 alpha electrons       97 beta electrons
       nuclear repulsion energy      2439.0750222516 Hartrees.
 NAtoms=   44 NActive=   44 NUniq=   44 SFac= 1.00D+00 NAtFMM=   60 NAOKFM=F Big=F
 Integral buffers will be    131072 words long.
 Regular integral format.
 Two-electron integral symmetry is turned on.
 One-electron integrals computed using PRISM.
 NBasis=   465 RedAO= T EigKep=  2.91D-04  NBF=   465
 NBsUse=   465 1.00D-06 EigRej= -1.00D+00 NBFU=   465
 Initial guess from the checkpoint file:  "/home/junhkim/WORK/Review_DD/TADF-Design/data/td_dft/results/mol_332/Gau-2438866.chk"
 B after Tr=    -0.000000    0.000000   -0.000000
         Rot=    1.000000    0.000000    0.000000   -0.000000 Ang=   0.00 deg.
 Requested convergence on RMS density matrix=1.00D-08 within  32 cycles.
 Requested convergence on MAX density matrix=1.00D-06.
 Requested convergence on             energy=1.00D-06.
 No special actions if energy rises.
 SCF Done:  E(RB3LYP) =  -1205.05278817     A.U. after    1 cycles
            NFock=  1  Conv=0.21D-08     -V/T= 2.0096
 QCSCF skips out because SCF is already converged.
 DoSCS=F DFT=T ScalE2(SS,OS)=  1.000000  1.000000
 ExpMin= 1.61D-01 ExpMax= 5.48D+03 ExpMxC= 8.25D+02 IAcc=3 IRadAn=         5 AccDes= 0.00D+00
 HarFok:  IExCor=  205 AccDes= 0.00D+00 IRadAn=         5 IDoV=-2 UseB2=F ITyADJ=14
 ICtDFT= 12500011 ScaDFX=  1.000000  1.000000  1.000000  1.000000
 GSVD:  LWork=       -1073 too small for GESVD, short by        4640 words or        4640 for optimal perf.
 Range of M.O.s used for correlation:    30   465
 NBasis=   465 NAE=    97 NBE=    97 NFC=    29 NFV=     0
 NROrb=    436 NOA=    68 NOB=    68 NVA=   368 NVB=   368
 Orbital symmetries:
       Occupied  (A) (A) (A) (A) (A) (A) (A) (A) (A) (A) (A) (A)
                 (A) (A) (A) (A) (A) (A) (A) (A) (A) (A) (A) (A)
                 (A) (A) (A) (A) (A) (A) (A) (A) (A) (A) (A) (A)
                 (A) (A) (A) (A) (A) (A) (A) (A) (A) (A) (A) (A)
                 (A) (A) (A) (A) (A) (A) (A) (A) (A) (A) (A) (A)
                 (A) (A) (A) (A) (A) (A) (A) (A) (A) (A) (A) (A)
                 (A) (A) (A) (A) (A) (A) (A) (A) (A) (A) (A) (A)
                 (A) (A) (A) (A) (A) (A) (A) (A) (A) (A) (A) (A)
                 (A)
       Virtual   (A) (A) (A) (A) (A) (A) (A) (A) (A) (A) (A) (A)
                 (A) (A) (A) (A) (A) (A) (A) (A) (A) (A) (A) (A)
                 (A) (A) (A) (A) (A) (A) (A) (A) (A) (A) (A) (A)
                 (A) (A) (A) (A) (A) (A) (A) (A) (A) (A) (A) (A)
                 (A) (A) (A) (A) (A) (A) (A) (A) (A) (A) (A) (A)
                 (A) (A) (A) (A) (A) (A) (A) (A) (A) (A) (A) (A)
                 (A) (A) (A) (A) (A) (A) (A) (A) (A) (A) (A) (A)
                 (A) (A) (A) (A) (A) (A) (A) (A) (A) (A) (A) (A)
                 (A) (A) (A) (A) (A) (A) (A) (A) (A) (A) (A) (A)
                 (A) (A) (A) (A) (A) (A) (A) (A) (A) (A) (A) (A)
                 (A) (A) (A) (A) (A) (A) (A) (A) (A) (A) (A) (A)
                 (A) (A) (A) (A) (A) (A) (A) (A) (A) (A) (A) (A)
                 (A) (A) (A) (A) (A) (A) (A) (A) (A) (A) (A) (A)
                 (A) (A) (A) (A) (A) (A) (A) (A) (A) (A) (A) (A)
                 (A) (A) (A) (A) (A) (A) (A) (A) (A) (A) (A) (A)
                 (A) (A) (A) (A) (A) (A) (A) (A) (A) (A) (A) (A)
                 (A) (A) (A) (A) (A) (A) (A) (A) (A) (A) (A) (A)
                 (A) (A) (A) (A) (A) (A) (A) (A) (A) (A) (A) (A)
                 (A) (A) (A) (A) (A) (A) (A) (A) (A) (A) (A) (A)
                 (A) (A) (A) (A) (A) (A) (A) (A) (A) (A) (A) (A)
                 (A) (A) (A) (A) (A) (A) (A) (A) (A) (A) (A) (A)
                 (A) (A) (A) (A) (A) (A) (A) (A) (A) (A) (A) (A)
                 (A) (A) (A) (A) (A) (A) (A) (A) (A) (A) (A) (A)
                 (A) (A) (A) (A) (A) (A) (A) (A) (A) (A) (A) (A)
                 (A) (A) (A) (A) (A) (A) (A) (A) (A) (A) (A) (A)
                 (A) (A) (A) (A) (A) (A) (A) (A) (A) (A) (A) (A)
                 (A) (A) (A) (A) (A) (A) (A) (A) (A) (A) (A) (A)
                 (A) (A) (A) (A) (A) (A) (A) (A) (A) (A) (A) (A)
                 (A) (A) (A) (A) (A) (A) (A) (A) (A) (A) (A) (A)
                 (A) (A) (A) (A) (A) (A) (A) (A) (A) (A) (A) (A)
                 (A) (A) (A) (A) (A) (A) (A) (A)
     8 initial guesses have been made.
 Convergence on wavefunction:    0.001000000000000
 Iteration     1 Dimension     8 NMult     0 NNew      8
 CISAX will form     8 AO SS matrices at one time.
 New state      1 was old state      2
 New state      2 was old state      4
 New state      3 was old state      8
 New state      4 was old state      1
 Vector   2 SDiff=9.28D-02 TDiff=3.07D+01 assumed to be singlet.
 Vector   4 SDiff=1.50D-01 TDiff=2.45D+01 assumed to be singlet.
 Iteration     2 Dimension    12 NMult     8 NNew      4
 New state      2 was old state      4
 Iteration     3 Dimension    16 NMult    12 NNew      4
 Iteration     4 Dimension    20 NMult    16 NNew      4
 Iteration     5 Dimension    24 NMult    20 NNew      4
 Iteration     6 Dimension    28 NMult    24 NNew      4
 Iteration     7 Dimension    32 NMult    28 NNew      4
 Iteration     8 Dimension    34 NMult    32 NNew      2
 ***********************************************************************
 Excited states from <AA,BB:AA,BB> singles matrix:
 ***********************************************************************
 
 Ground to excited state transition densities written to RWF  633
 Ground to excited state transition electric dipole moments (Au):
       state          X           Y           Z        Dip. S.      Osc.
         1         0.0000      0.0000     -0.0000      0.0000      0.0000
         2        -1.2661      0.6186     -0.1682      2.0140      0.1495
 Ground to excited state transition velocity dipole moments (Au):
       state          X           Y           Z        Dip. S.      Osc.
         1         0.0000     -0.0000      0.0000      0.0000      0.0000
         2         0.1508     -0.0734      0.0226      0.0286      0.1714
 Ground to excited state transition magnetic dipole moments (Au):
       state          X           Y           Z
         1         0.0000      0.0000      0.0000
         2         0.0330     -0.1692      0.0163
 Ground to excited state transition velocity quadrupole moments (Au):
       state          XX          YY          ZZ          XY          XZ          YZ
         1         0.0000     -0.0000     -0.0000     -0.0000     -0.0000     -0.0000
         2         0.5708     -0.1103      0.0001     -0.1515      0.1385      0.0958
 <0|del|b> * <b|rxdel|0> + <0|del|b> * <b|delr+rdel|0>
 Rotatory Strengths (R) in cgs (10**-40 erg-esu-cm/Gauss)
       state          XX          YY          ZZ    R(velocity)    E-M Angle
         1        -0.0000      0.0000      0.0000     -0.0000       90.00
         2        61.9270     73.7142    -22.9202     37.5737       52.70
 1/2[<0|r|b>*<b|rxdel|0> + (<0|rxdel|b>*<b|r|0>)*]
 Rotatory Strengths (R) in cgs (10**-40 erg-esu-cm/Gauss)
       state          XX          YY          ZZ     R(length)
         1        -0.0000     -0.0000      0.0000     -0.0000
         2        29.5291     74.0033      1.9382     35.1569
  1/2[<0|del|b>*<b|r|0> + (<0|r|b>*<b|del|0>)*] (Au)
       state          X           Y           Z        Dip. S.   Osc.(frdel)
         1         0.0000     -0.0000     -0.0000      0.0000      0.0000
         2        -0.1909     -0.0454     -0.0038      0.2401      0.1601

 Excitation energies and oscillator strengths:
 
 Excited State   1:      Triplet-A      2.4728 eV  501.39 nm  f=0.0000  <S**2>=2.000
      96 -> 98        -0.10001
      97 -> 98         0.67531
 This state for optimization and/or second-order correction.
 Total Energy, E(TD-HF/TD-DFT) =  -1204.96191385    
 Copying the excited state density for this state as the 1-particle RhoCI density.
 
 Excited State   2:      Singlet-A      3.0302 eV  409.16 nm  f=0.1495  <S**2>=0.000
      97 -> 98         0.69773
 SavETr:  write IOETrn=   770 NScale= 10 NData=  16 NLR=1 NState=    2 LETran=      46.

 **********************************************************************

            Population analysis using the SCF Density.

 **********************************************************************

 Orbital symmetries:
       Occupied  (A) (A) (A) (A) (A) (A) (A) (A) (A) (A) (A) (A)
                 (A) (A) (A) (A) (A) (A) (A) (A) (A) (A) (A) (A)
                 (A) (A) (A) (A) (A) (A) (A) (A) (A) (A) (A) (A)
                 (A) (A) (A) (A) (A) (A) (A) (A) (A) (A) (A) (A)
                 (A) (A) (A) (A) (A) (A) (A) (A) (A) (A) (A) (A)
                 (A) (A) (A) (A) (A) (A) (A) (A) (A) (A) (A) (A)
                 (A) (A) (A) (A) (A) (A) (A) (A) (A) (A) (A) (A)
                 (A) (A) (A) (A) (A) (A) (A) (A) (A) (A) (A) (A)
                 (A)
       Virtual   (A) (A) (A) (A) (A) (A) (A) (A) (A) (A) (A) (A)
                 (A) (A) (A) (A) (A) (A) (A) (A) (A) (A) (A) (A)
                 (A) (A) (A) (A) (A) (A) (A) (A) (A) (A) (A) (A)
                 (A) (A) (A) (A) (A) (A) (A) (A) (A) (A) (A) (A)
                 (A) (A) (A) (A) (A) (A) (A) (A) (A) (A) (A) (A)
                 (A) (A) (A) (A) (A) (A) (A) (A) (A) (A) (A) (A)
                 (A) (A) (A) (A) (A) (A) (A) (A) (A) (A) (A) (A)
                 (A) (A) (A) (A) (A) (A) (A) (A) (A) (A) (A) (A)
                 (A) (A) (A) (A) (A) (A) (A) (A) (A) (A) (A) (A)
                 (A) (A) (A) (A) (A) (A) (A) (A) (A) (A) (A) (A)
                 (A) (A) (A) (A) (A) (A) (A) (A) (A) (A) (A) (A)
                 (A) (A) (A) (A) (A) (A) (A) (A) (A) (A) (A) (A)
                 (A) (A) (A) (A) (A) (A) (A) (A) (A) (A) (A) (A)
                 (A) (A) (A) (A) (A) (A) (A) (A) (A) (A) (A) (A)
                 (A) (A) (A) (A) (A) (A) (A) (A) (A) (A) (A) (A)
                 (A) (A) (A) (A) (A) (A) (A) (A) (A) (A) (A) (A)
                 (A) (A) (A) (A) (A) (A) (A) (A) (A) (A) (A) (A)
                 (A) (A) (A) (A) (A) (A) (A) (A) (A) (A) (A) (A)
                 (A) (A) (A) (A) (A) (A) (A) (A) (A) (A) (A) (A)
                 (A) (A) (A) (A) (A) (A) (A) (A) (A) (A) (A) (A)
                 (A) (A) (A) (A) (A) (A) (A) (A) (A) (A) (A) (A)
                 (A) (A) (A) (A) (A) (A) (A) (A) (A) (A) (A) (A)
                 (A) (A) (A) (A) (A) (A) (A) (A) (A) (A) (A) (A)
                 (A) (A) (A) (A) (A) (A) (A) (A) (A) (A) (A) (A)
                 (A) (A) (A) (A) (A) (A) (A) (A) (A) (A) (A) (A)
                 (A) (A) (A) (A) (A) (A) (A) (A) (A) (A) (A) (A)
                 (A) (A) (A) (A) (A) (A) (A) (A) (A) (A) (A) (A)
                 (A) (A) (A) (A) (A) (A) (A) (A) (A) (A) (A) (A)
                 (A) (A) (A) (A) (A) (A) (A) (A) (A) (A) (A) (A)
                 (A) (A) (A) (A) (A) (A) (A) (A) (A) (A) (A) (A)
                 (A) (A) (A) (A) (A) (A) (A) (A)
 The electronic state is 1-A.
 Alpha  occ. eigenvalues --  -19.12932 -19.12893 -14.41832 -10.27425 -10.27403
 Alpha  occ. eigenvalues --  -10.26382 -10.26285 -10.26171 -10.21440 -10.21327
 Alpha  occ. eigenvalues --  -10.21270 -10.21172 -10.21172 -10.21144 -10.21141
 Alpha  occ. eigenvalues --  -10.21069 -10.21066 -10.21055 -10.21050 -10.20701
 Alpha  occ. eigenvalues --  -10.20669 -10.20492 -10.20487 -10.20375 -10.19694
 Alpha  occ. eigenvalues --  -10.19634 -10.19595 -10.19546 -10.19515  -1.03123
 Alpha  occ. eigenvalues --   -1.02897  -1.00922  -0.88524  -0.87939  -0.86635
 Alpha  occ. eigenvalues --   -0.85298  -0.80909  -0.79320  -0.78101  -0.76709
 Alpha  occ. eigenvalues --   -0.76582  -0.75442  -0.74959  -0.72998  -0.67446
 Alpha  occ. eigenvalues --   -0.66083  -0.65567  -0.65150  -0.61793  -0.60795
 Alpha  occ. eigenvalues --   -0.60295  -0.59804  -0.56842  -0.56335  -0.55857
 Alpha  occ. eigenvalues --   -0.54080  -0.52173  -0.49605  -0.48957  -0.48441
 Alpha  occ. eigenvalues --   -0.48257  -0.47931  -0.47314  -0.45814  -0.45289
 Alpha  occ. eigenvalues --   -0.45144  -0.44717  -0.44233  -0.44130  -0.43331
 Alpha  occ. eigenvalues --   -0.42536  -0.42243  -0.41775  -0.41290  -0.40144
 Alpha  occ. eigenvalues --   -0.39571  -0.38773  -0.38101  -0.37798  -0.37429
 Alpha  occ. eigenvalues --   -0.37032  -0.36503  -0.36286  -0.36023  -0.34956
 Alpha  occ. eigenvalues --   -0.34424  -0.33680  -0.28861  -0.27309  -0.27022
 Alpha  occ. eigenvalues --   -0.26622  -0.26530  -0.25622  -0.25592  -0.24866
 Alpha  occ. eigenvalues --   -0.24494  -0.21309
 Alpha virt. eigenvalues --   -0.08465  -0.05429  -0.04404  -0.02901  -0.01603
 Alpha virt. eigenvalues --   -0.00671  -0.00426   0.01813   0.04650   0.07420
 Alpha virt. eigenvalues --    0.08449   0.09072   0.09899   0.10849   0.12709
 Alpha virt. eigenvalues --    0.13410   0.14042   0.14743   0.14912   0.15265
 Alpha virt. eigenvalues --    0.15986   0.16642   0.16803   0.16873   0.17109
 Alpha virt. eigenvalues --    0.18038   0.18460   0.18749   0.19355   0.20699
 Alpha virt. eigenvalues --    0.21824   0.22929   0.23596   0.24838   0.25527
 Alpha virt. eigenvalues --    0.25792   0.26642   0.28112   0.28337   0.28645
 Alpha virt. eigenvalues --    0.29543   0.30176   0.30848   0.32589   0.33147
 Alpha virt. eigenvalues --    0.33241   0.34083   0.35214   0.35337   0.36674
 Alpha virt. eigenvalues --    0.37188   0.40927   0.41038   0.43062   0.43155
 Alpha virt. eigenvalues --    0.44768   0.46326   0.47375   0.48647   0.49337
 Alpha virt. eigenvalues --    0.49901   0.50092   0.51015   0.51808   0.52620
 Alpha virt. eigenvalues --    0.52993   0.53148   0.53519   0.53606   0.54203
 Alpha virt. eigenvalues --    0.54652   0.55126   0.55716   0.55852   0.56042
 Alpha virt. eigenvalues --    0.56793   0.57265   0.57393   0.58069   0.58760
 Alpha virt. eigenvalues --    0.58955   0.59091   0.59345   0.59563   0.59616
 Alpha virt. eigenvalues --    0.59851   0.60317   0.60652   0.60779   0.60999
 Alpha virt. eigenvalues --    0.61533   0.61793   0.62065   0.62603   0.63157
 Alpha virt. eigenvalues --    0.63840   0.64203   0.64934   0.66204   0.66608
 Alpha virt. eigenvalues --    0.67704   0.68393   0.69110   0.69582   0.71138
 Alpha virt. eigenvalues --    0.72916   0.74071   0.75398   0.75916   0.77026
 Alpha virt. eigenvalues --    0.77845   0.77929   0.78490   0.79560   0.80203
 Alpha virt. eigenvalues --    0.81621   0.81930   0.82424   0.82738   0.82942
 Alpha virt. eigenvalues --    0.83093   0.83504   0.83928   0.84809   0.85389
 Alpha virt. eigenvalues --    0.86161   0.86925   0.87767   0.88682   0.89989
 Alpha virt. eigenvalues --    0.90316   0.90854   0.91671   0.92359   0.93005
 Alpha virt. eigenvalues --    0.93309   0.94437   0.94788   0.95681   0.97225
 Alpha virt. eigenvalues --    0.97578   0.98795   1.00019   1.00379   1.00677
 Alpha virt. eigenvalues --    1.01341   1.01825   1.02564   1.04358   1.05864
 Alpha virt. eigenvalues --    1.06104   1.06941   1.07751   1.08555   1.08644
 Alpha virt. eigenvalues --    1.10168   1.11539   1.12043   1.12942   1.13572
 Alpha virt. eigenvalues --    1.14657   1.14669   1.16490   1.16890   1.17877
 Alpha virt. eigenvalues --    1.18459   1.20271   1.21373   1.21721   1.23865
 Alpha virt. eigenvalues --    1.24269   1.25505   1.25803   1.25990   1.27273
 Alpha virt. eigenvalues --    1.28149   1.28990   1.29790   1.31485   1.32123
 Alpha virt. eigenvalues --    1.35999   1.36893   1.38415   1.39575   1.40603
 Alpha virt. eigenvalues --    1.41186   1.42122   1.42755   1.42945   1.43609
 Alpha virt. eigenvalues --    1.44775   1.45131   1.45672   1.47144   1.47823
 Alpha virt. eigenvalues --    1.48359   1.48805   1.48884   1.49463   1.49938
 Alpha virt. eigenvalues --    1.51105   1.51413   1.53005   1.54175   1.55865
 Alpha virt. eigenvalues --    1.60728   1.61919   1.62662   1.64413   1.66575
 Alpha virt. eigenvalues --    1.68418   1.70502   1.72717   1.72859   1.74295
 Alpha virt. eigenvalues --    1.74733   1.75832   1.77279   1.77803   1.78400
 Alpha virt. eigenvalues --    1.78907   1.79697   1.80384   1.81306   1.82101
 Alpha virt. eigenvalues --    1.83183   1.83977   1.84564   1.84779   1.85894
 Alpha virt. eigenvalues --    1.86498   1.87835   1.88622   1.88959   1.89594
 Alpha virt. eigenvalues --    1.90670   1.91688   1.91784   1.92565   1.93618
 Alpha virt. eigenvalues --    1.94168   1.95077   1.97240   1.98061   1.99247
 Alpha virt. eigenvalues --    2.00733   2.01243   2.02766   2.03408   2.03903
 Alpha virt. eigenvalues --    2.05076   2.06551   2.07108   2.08931   2.10222
 Alpha virt. eigenvalues --    2.11189   2.11815   2.13120   2.13611   2.14477
 Alpha virt. eigenvalues --    2.15318   2.15782   2.17865   2.18102   2.19977
 Alpha virt. eigenvalues --    2.20331   2.22111   2.22584   2.24366   2.25337
 Alpha virt. eigenvalues --    2.25651   2.27106   2.27274   2.27584   2.28041
 Alpha virt. eigenvalues --    2.29637   2.29992   2.30316   2.30571   2.31293
 Alpha virt. eigenvalues --    2.32047   2.32802   2.33895   2.38391   2.39641
 Alpha virt. eigenvalues --    2.40978   2.42209   2.42805   2.48947   2.50377
 Alpha virt. eigenvalues --    2.51961   2.54646   2.55381   2.56105   2.56394
 Alpha virt. eigenvalues --    2.57980   2.58314   2.59930   2.62041   2.62534
 Alpha virt. eigenvalues --    2.63125   2.64055   2.65065   2.65902   2.67258
 Alpha virt. eigenvalues --    2.67551   2.69366   2.69729   2.71095   2.72386
 Alpha virt. eigenvalues --    2.73026   2.73409   2.74519   2.74745   2.75866
 Alpha virt. eigenvalues --    2.78012   2.78799   2.80642   2.82441   2.83166
 Alpha virt. eigenvalues --    2.84539   2.86901   2.88443   2.94638   2.95082
 Alpha virt. eigenvalues --    2.96301   2.98543   3.00728   3.01966   3.04228
 Alpha virt. eigenvalues --    3.06661   3.14262   3.17600   3.27660   3.31853
 Alpha virt. eigenvalues --    3.36065   3.42667   3.51571   3.52254   3.97054
 Alpha virt. eigenvalues --    3.98149   4.07647   4.08255   4.08692   4.09378
 Alpha virt. eigenvalues --    4.11179   4.11547   4.12807   4.13427   4.14967
 Alpha virt. eigenvalues --    4.16716   4.18749   4.20079   4.31910   4.32630
 Alpha virt. eigenvalues --    4.33623   4.33710   4.36246   4.38028   4.39266
 Alpha virt. eigenvalues --    4.41065   4.46095   4.65682   4.68130   4.70518
 Alpha virt. eigenvalues --    4.72045   4.77262   4.89908
          Condensed to atoms (all electrons):
               1          2          3          4          5          6
     1  O    8.084933   0.578848  -0.103890   0.002577   0.000890  -0.000005
     2  C    0.578848   4.751706   0.220304  -0.042293   0.007318  -0.000123
     3  C   -0.103890   0.220304   5.153022   0.473365  -0.025291  -0.035176
     4  C    0.002577  -0.042293   0.473365   5.027272   0.493382  -0.022004
     5  C    0.000890   0.007318  -0.025291   0.493382   4.916425   0.520465
     6  C   -0.000005  -0.000123  -0.035176  -0.022004   0.520465   4.863248
     7  C   -0.000077   0.006839  -0.039911  -0.054732  -0.028907   0.527479
     8  C    0.004028  -0.024176   0.461783  -0.042437  -0.038023  -0.013240
     9  N    0.000046  -0.037282  -0.032671   0.007126  -0.000101   0.005077
    10  C    0.000002   0.000102   0.003319  -0.000083   0.000001   0.000368
    11  C   -0.000000   0.000026   0.000443   0.000000  -0.000003  -0.000248
    12  C    0.000000  -0.000000  -0.000001  -0.000000  -0.000000  -0.000020
    13  C   -0.000000   0.000000  -0.000000   0.000000   0.000000  -0.000000
    14  C   -0.000000   0.000000   0.000000   0.000000   0.000000   0.000000
    15  C   -0.000000  -0.000000  -0.000000   0.000000   0.000000   0.000000
    16  C    0.000000   0.000000   0.000000   0.000000   0.000000  -0.000000
    17  C    0.000000   0.000000  -0.000000  -0.000000  -0.000000  -0.000000
    18  C    0.000000  -0.000000  -0.000000   0.000000   0.000000   0.000000
    19  C    0.000000  -0.000000   0.000000  -0.000000  -0.000000  -0.000000
    20  C    0.000000  -0.000000   0.000001  -0.000000  -0.000000  -0.000000
    21  C   -0.000000   0.000014  -0.000211   0.000001  -0.000000  -0.000002
    22  C    0.000000  -0.000144   0.000017  -0.000000   0.000000  -0.000000
    23  O   -0.000000   0.000000  -0.000000   0.000000   0.000000   0.000000
    24  C   -0.000076   0.006913  -0.000321   0.000017   0.000000   0.000002
    25  C   -0.000006   0.000150  -0.000032   0.000000   0.000000  -0.000000
    26  C    0.000871   0.007209  -0.000289  -0.000000   0.000000   0.000000
    27  C    0.003297  -0.048510   0.014257  -0.000409  -0.000001   0.000001
    28  C   -0.104419   0.221107  -0.055820   0.012789  -0.000331  -0.000023
    29  C    0.003858  -0.009883  -0.032563  -0.000047   0.000057  -0.000050
    30  H    0.017398  -0.009619  -0.043928   0.355594  -0.042322   0.004412
    31  H    0.000001  -0.000135   0.003162  -0.038050   0.362010  -0.041771
    32  H    0.000000   0.000008   0.000924   0.004115  -0.039924   0.359484
    33  H    0.000000  -0.000126   0.003951   0.000620   0.004077  -0.035651
    34  H    0.000000  -0.000001  -0.000345  -0.000034  -0.000037   0.000782
    35  H   -0.000000  -0.000000   0.000000  -0.000000  -0.000000   0.000000
    36  H   -0.000000   0.000000  -0.000000   0.000000   0.000000  -0.000000
    37  H    0.000000  -0.000000  -0.000000   0.000000  -0.000000   0.000000
    38  H    0.000000   0.000000  -0.000000   0.000000  -0.000000   0.000000
    39  H    0.000000   0.000000   0.000000  -0.000000  -0.000000  -0.000000
    40  H    0.000000   0.000000  -0.000000   0.000000  -0.000000  -0.000000
    41  H    0.000000  -0.000000  -0.000000   0.000000   0.000000  -0.000000
    42  H   -0.000000   0.000007   0.000000   0.000000  -0.000000   0.000000
    43  H    0.000001  -0.000145   0.000002  -0.000000   0.000000   0.000000
    44  H    0.016894  -0.009004   0.001056  -0.000017  -0.000000   0.000000
               7          8          9         10         11         12
     1  O   -0.000077   0.004028   0.000046   0.000002  -0.000000   0.000000
     2  C    0.006839  -0.024176  -0.037282   0.000102   0.000026  -0.000000
     3  C   -0.039911   0.461783  -0.032671   0.003319   0.000443  -0.000001
     4  C   -0.054732  -0.042437   0.007126  -0.000083   0.000000  -0.000000
     5  C   -0.028907  -0.038023  -0.000101   0.000001  -0.000003  -0.000000
     6  C    0.527479  -0.013240   0.005077   0.000368  -0.000248  -0.000020
     7  C    5.052097   0.479147  -0.074910  -0.005055  -0.009237  -0.000250
     8  C    0.479147   4.750201   0.247493  -0.033636  -0.005531   0.000379
     9  N   -0.074910   0.247493   7.401342   0.245744  -0.074947   0.005270
    10  C   -0.005055  -0.033636   0.245744   4.759353   0.477384  -0.020397
    11  C   -0.009237  -0.005531  -0.074947   0.477384   5.085092   0.489124
    12  C   -0.000250   0.000379   0.005270  -0.020397   0.489124   5.014784
    13  C   -0.000001  -0.000002  -0.000140  -0.029137  -0.013502   0.500059
    14  C    0.000000  -0.000000   0.000000   0.000921   0.006065  -0.047849
    15  C   -0.000000  -0.000000  -0.000000  -0.000007  -0.000171   0.005847
    16  C    0.000000   0.000000   0.000000  -0.000000   0.000002  -0.000172
    17  C    0.000000  -0.000000   0.000000   0.000000  -0.000000   0.000002
    18  C   -0.000000  -0.000000   0.000000   0.000000  -0.000003   0.000315
    19  C    0.000000   0.000000   0.000000  -0.000005   0.000410  -0.012621
    20  C   -0.000003  -0.000078   0.007420  -0.050884  -0.059892  -0.049640
    21  C    0.000509   0.003328  -0.032181   0.462720  -0.035970  -0.036744
    22  C    0.000029   0.000045  -0.037301  -0.026263   0.006598   0.000388
    23  O   -0.000000   0.000002   0.000040   0.004043  -0.000087   0.000010
    24  C   -0.000304   0.002929  -0.057158  -0.026013  -0.000233  -0.000018
    25  C    0.000001  -0.000054   0.008255  -0.000169   0.000020   0.000000
    26  C    0.000000   0.000019  -0.000682   0.000020   0.000000   0.000000
    27  C    0.000018  -0.000241   0.008255  -0.000056   0.000001  -0.000000
    28  C   -0.000103  -0.026075  -0.057714   0.002804  -0.000291   0.000002
    29  C    0.002168  -0.025823   0.255714  -0.026277   0.002264  -0.000040
    30  H    0.000267   0.005377  -0.000077   0.000001  -0.000000  -0.000000
    31  H    0.004560   0.000865   0.000005  -0.000000   0.000000  -0.000000
    32  H   -0.038134   0.003417  -0.000106  -0.000000   0.000006   0.000000
    33  H    0.351341  -0.037875  -0.008085   0.004477   0.006301   0.000681
    34  H    0.006639   0.004252  -0.007823  -0.036746   0.348825  -0.031143
    35  H    0.000002  -0.000001  -0.000100   0.003501  -0.039532   0.350255
    36  H    0.000000   0.000000  -0.000000  -0.000008  -0.000004  -0.000016
    37  H   -0.000000  -0.000000  -0.000000  -0.000000  -0.000000   0.000001
    38  H    0.000000  -0.000000  -0.000000  -0.000000   0.000000  -0.000000
    39  H   -0.000000   0.000000  -0.000000  -0.000000  -0.000000  -0.000001
    40  H    0.000000   0.000000  -0.000000  -0.000016   0.000023   0.004946
    41  H   -0.000000   0.000001  -0.000076   0.005386  -0.000011   0.005854
    42  H   -0.000000   0.000002  -0.000075  -0.000044   0.000000   0.000000
    43  H    0.000000  -0.000000   0.000007   0.000000   0.000000   0.000000
    44  H    0.000000  -0.000045  -0.000075   0.000002  -0.000000   0.000000
              13         14         15         16         17         18
     1  O   -0.000000  -0.000000  -0.000000   0.000000   0.000000   0.000000
     2  C    0.000000   0.000000  -0.000000   0.000000   0.000000  -0.000000
     3  C   -0.000000   0.000000  -0.000000   0.000000  -0.000000  -0.000000
     4  C    0.000000   0.000000   0.000000   0.000000  -0.000000   0.000000
     5  C    0.000000   0.000000   0.000000   0.000000  -0.000000   0.000000
     6  C   -0.000000   0.000000   0.000000  -0.000000  -0.000000   0.000000
     7  C   -0.000001   0.000000  -0.000000   0.000000   0.000000  -0.000000
     8  C   -0.000002  -0.000000  -0.000000   0.000000  -0.000000  -0.000000
     9  N   -0.000140   0.000000  -0.000000   0.000000   0.000000   0.000000
    10  C   -0.029137   0.000921  -0.000007  -0.000000   0.000000   0.000000
    11  C   -0.013502   0.006065  -0.000171   0.000002  -0.000000  -0.000003
    12  C    0.500059  -0.047849   0.005847  -0.000172   0.000002   0.000315
    13  C    4.847776   0.338089  -0.044996   0.006003   0.000721   0.006175
    14  C    0.338089   4.753314   0.524107  -0.014655  -0.033082  -0.013742
    15  C   -0.044996   0.524107   4.993688   0.516803  -0.037575  -0.043852
    16  C    0.006003  -0.014655   0.516803   4.870016   0.548309  -0.025917
    17  C    0.000721  -0.033082  -0.037575   0.548309   4.851668   0.549238
    18  C    0.006175  -0.013742  -0.043852  -0.025917   0.549238   4.868533
    19  C   -0.048277   0.523407  -0.061075  -0.043568  -0.037878   0.517464
    20  C    0.447236  -0.040493  -0.013088   0.000372  -0.000000  -0.000184
    21  C   -0.019910   0.005397   0.000590  -0.000003  -0.000000   0.000001
    22  C    0.006924  -0.000221  -0.000007  -0.000000   0.000000   0.000000
    23  O    0.001091  -0.000014   0.000001  -0.000000   0.000000   0.000000
    24  C   -0.000265  -0.000000  -0.000000   0.000000   0.000000   0.000000
    25  C   -0.000002   0.000000  -0.000000  -0.000000  -0.000000  -0.000000
    26  C    0.000000   0.000000   0.000000  -0.000000   0.000000   0.000000
    27  C    0.000000  -0.000000  -0.000000  -0.000000  -0.000000   0.000000
    28  C    0.000000  -0.000000   0.000000   0.000000  -0.000000  -0.000000
    29  C    0.000045  -0.000000   0.000000  -0.000000   0.000000   0.000000
    30  H    0.000000   0.000000  -0.000000   0.000000   0.000000  -0.000000
    31  H    0.000000  -0.000000  -0.000000  -0.000000  -0.000000  -0.000000
    32  H   -0.000000  -0.000000   0.000000  -0.000000  -0.000000   0.000000
    33  H   -0.000033   0.000000  -0.000000  -0.000000  -0.000000   0.000000
    34  H    0.002729  -0.000149   0.000001  -0.000000   0.000000  -0.000000
    35  H   -0.038417  -0.008963  -0.000013  -0.000007  -0.000005  -0.000022
    36  H   -0.010538  -0.041738   0.352830  -0.042717   0.004650   0.000310
    37  H   -0.000187   0.003394  -0.038156   0.357708  -0.042694   0.004542
    38  H    0.000004   0.000609   0.004767  -0.042779   0.359500  -0.042978
    39  H   -0.000187   0.003394   0.000844   0.004543  -0.042517   0.357382
    40  H   -0.010414  -0.042599   0.006131   0.000310   0.004726  -0.043479
    41  H   -0.040644  -0.007299   0.004726  -0.000042  -0.000003  -0.000007
    42  H   -0.000000  -0.000000   0.000000   0.000000  -0.000000  -0.000000
    43  H    0.000000  -0.000000  -0.000000  -0.000000   0.000000  -0.000000
    44  H   -0.000000  -0.000000   0.000000   0.000000  -0.000000  -0.000000
              19         20         21         22         23         24
     1  O    0.000000   0.000000  -0.000000   0.000000  -0.000000  -0.000076
     2  C   -0.000000  -0.000000   0.000014  -0.000144   0.000000   0.006913
     3  C    0.000000   0.000001  -0.000211   0.000017  -0.000000  -0.000321
     4  C   -0.000000  -0.000000   0.000001  -0.000000   0.000000   0.000017
     5  C   -0.000000  -0.000000  -0.000000   0.000000   0.000000   0.000000
     6  C   -0.000000  -0.000000  -0.000002  -0.000000   0.000000   0.000002
     7  C    0.000000  -0.000003   0.000509   0.000029  -0.000000  -0.000304
     8  C    0.000000  -0.000078   0.003328   0.000045   0.000002   0.002929
     9  N    0.000000   0.007420  -0.032181  -0.037301   0.000040  -0.057158
    10  C   -0.000005  -0.050884   0.462720  -0.026263   0.004043  -0.026013
    11  C    0.000410  -0.059892  -0.035970   0.006598  -0.000087  -0.000233
    12  C   -0.012621  -0.049640  -0.036744   0.000388   0.000010  -0.000018
    13  C   -0.048277   0.447236  -0.019910   0.006924   0.001091  -0.000265
[...]
    17  C   -0.037878  -0.000000  -0.000000   0.000000   0.000000   0.000000
    18  C    0.517464  -0.000184   0.000001   0.000000   0.000000   0.000000
    19  C    5.001951   0.005961  -0.000175   0.000001  -0.000000   0.000000
    20  C    0.005961   5.235486   0.422720  -0.033766   0.003152   0.012647
    21  C   -0.000175   0.422720   5.200047   0.209944  -0.105223  -0.056272
    22  C    0.000001  -0.033766   0.209944   4.746758   0.577858   0.230473
    23  O   -0.000000   0.003152  -0.105223   0.577858   8.083859  -0.103307
    24  C    0.000000   0.012647  -0.056272   0.230473  -0.103307   5.194513
    25  C    0.000000  -0.000442   0.014472  -0.048975   0.003242   0.473170
    26  C   -0.000000  -0.000000  -0.000292   0.007153   0.000860  -0.011284
    27  C   -0.000000   0.000001  -0.000032   0.000176  -0.000005  -0.049381
    28  C   -0.000000   0.000021  -0.000325   0.006718  -0.000078  -0.030406
    29  C   -0.000000   0.000067  -0.032927  -0.010244   0.003791   0.404567
    30  H   -0.000000   0.000000  -0.000000  -0.000000   0.000000   0.000000
    31  H   -0.000000  -0.000000   0.000000   0.000000  -0.000000   0.000000
    32  H    0.000000  -0.000000   0.000000  -0.000000  -0.000000  -0.000000
    33  H   -0.000000  -0.000040  -0.000332   0.000000   0.000000   0.000012
    34  H   -0.000002   0.000798   0.003824  -0.000126   0.000000   0.000020
    35  H    0.005801   0.006064   0.000632   0.000008   0.000000   0.000000
    36  H    0.006103   0.006173   0.000063   0.000002  -0.000009  -0.000000
    37  H    0.000845  -0.000001   0.000000  -0.000000  -0.000000  -0.000000
    38  H    0.004823  -0.000000   0.000000  -0.000000   0.000000   0.000000
    39  H   -0.038767   0.000001  -0.000000   0.000000  -0.000000  -0.000000
    40  H    0.350844  -0.000046   0.000002   0.000000  -0.000000  -0.000000
    41  H   -0.000026   0.347290  -0.045107  -0.009428   0.018885   0.001127
    42  H    0.000000  -0.000018   0.001082  -0.009089   0.016902  -0.042919
    43  H    0.000000  -0.000000   0.000002  -0.000147   0.000001   0.002575
    44  H    0.000000   0.000000   0.000000   0.000007  -0.000000   0.000464
              25         26         27         28         29         30
     1  O   -0.000006   0.000871   0.003297  -0.104419   0.003858   0.017398
     2  C    0.000150   0.007209  -0.048510   0.221107  -0.009883  -0.009619
     3  C   -0.000032  -0.000289   0.014257  -0.055820  -0.032563  -0.043928
     4  C    0.000000  -0.000000  -0.000409   0.012789  -0.000047   0.355594
     5  C    0.000000   0.000000  -0.000001  -0.000331   0.000057  -0.042322
     6  C   -0.000000   0.000000   0.000001  -0.000023  -0.000050   0.004412
     7  C    0.000001   0.000000   0.000018  -0.000103   0.002168   0.000267
     8  C   -0.000054   0.000019  -0.000241  -0.026075  -0.025823   0.005377
     9  N    0.008255  -0.000682   0.008255  -0.057714   0.255714  -0.000077
    10  C   -0.000169   0.000020  -0.000056   0.002804  -0.026277   0.000001
    11  C    0.000020   0.000000   0.000001  -0.000291   0.002264  -0.000000
    12  C    0.000000   0.000000  -0.000000   0.000002  -0.000040  -0.000000
    13  C   -0.000002   0.000000   0.000000   0.000000   0.000045   0.000000
    14  C    0.000000   0.000000  -0.000000  -0.000000  -0.000000   0.000000
    15  C   -0.000000   0.000000  -0.000000   0.000000   0.000000  -0.000000
    16  C   -0.000000  -0.000000  -0.000000   0.000000  -0.000000   0.000000
    17  C   -0.000000   0.000000  -0.000000  -0.000000   0.000000   0.000000
    18  C   -0.000000   0.000000   0.000000  -0.000000   0.000000  -0.000000
    19  C    0.000000  -0.000000  -0.000000  -0.000000  -0.000000  -0.000000
    20  C   -0.000442  -0.000000   0.000001   0.000021   0.000067   0.000000
    21  C    0.014472  -0.000292  -0.000032  -0.000325  -0.032927  -0.000000
    22  C   -0.048975   0.007153   0.000176   0.006718  -0.010244  -0.000000
    23  O    0.003242   0.000860  -0.000005  -0.000078   0.003791   0.000000
    24  C    0.473170  -0.011284  -0.049381  -0.030406   0.404567   0.000000
    25  C    5.053628   0.463434  -0.020536  -0.049541  -0.044872   0.000000
    26  C    0.463434   4.982440   0.463267  -0.011408  -0.046629  -0.000000
    27  C   -0.020536   0.463267   5.053659   0.473324  -0.044956  -0.000017
    28  C   -0.049541  -0.011408   0.473324   5.204681   0.404448   0.001103
    29  C   -0.044872  -0.046629  -0.044956   0.404448   4.923682  -0.000044
    30  H    0.000000  -0.000000  -0.000017   0.001103  -0.000044   0.545248
    31  H    0.000000   0.000000  -0.000000   0.000002  -0.000000  -0.004267
    32  H    0.000000  -0.000000   0.000000   0.000000   0.000001  -0.000164
    33  H    0.000000  -0.000000  -0.000000   0.000025  -0.000001   0.000015
    34  H   -0.000000  -0.000000   0.000000   0.000013   0.000005  -0.000000
    35  H    0.000000  -0.000000   0.000000  -0.000000   0.000000  -0.000000
    36  H    0.000000   0.000000  -0.000000  -0.000000   0.000000   0.000000
    37  H    0.000000   0.000000  -0.000000  -0.000000   0.000000   0.000000
    38  H    0.000000  -0.000000  -0.000000  -0.000000   0.000000   0.000000
    39  H    0.000000  -0.000000   0.000000  -0.000000  -0.000000  -0.000000
    40  H    0.000000   0.000000  -0.000000  -0.000000   0.000000   0.000000
    41  H   -0.000019  -0.000000   0.000000   0.000001  -0.000040  -0.000000
    42  H    0.355254  -0.041443   0.004020   0.000456   0.005381   0.000000
    43  H   -0.037017   0.362326  -0.037089   0.002588   0.001343  -0.000000
    44  H    0.004008  -0.041371   0.355154  -0.042885   0.005386  -0.000011
              31         32         33         34         35         36
     1  O    0.000001   0.000000   0.000000   0.000000  -0.000000  -0.000000
     2  C   -0.000135   0.000008  -0.000126  -0.000001  -0.000000   0.000000
     3  C    0.003162   0.000924   0.003951  -0.000345   0.000000  -0.000000
     4  C   -0.038050   0.004115   0.000620  -0.000034  -0.000000   0.000000
     5  C    0.362010  -0.039924   0.004077  -0.000037  -0.000000   0.000000
     6  C   -0.041771   0.359484  -0.035651   0.000782   0.000000  -0.000000
     7  C    0.004560  -0.038134   0.351341   0.006639   0.000002   0.000000
     8  C    0.000865   0.003417  -0.037875   0.004252  -0.000001   0.000000
     9  N    0.000005  -0.000106  -0.008085  -0.007823  -0.000100  -0.000000
    10  C   -0.000000  -0.000000   0.004477  -0.036746   0.003501  -0.000008
    11  C    0.000000   0.000006   0.006301   0.348825  -0.039532  -0.000004
    12  C   -0.000000   0.000000   0.000681  -0.031143   0.350255  -0.000016
    13  C    0.000000  -0.000000  -0.000033   0.002729  -0.038417  -0.010538
    14  C   -0.000000  -0.000000   0.000000  -0.000149  -0.008963  -0.041738
    15  C   -0.000000   0.000000  -0.000000   0.000001  -0.000013   0.352830
    16  C   -0.000000  -0.000000  -0.000000  -0.000000  -0.000007  -0.042717
    17  C   -0.000000  -0.000000  -0.000000   0.000000  -0.000005   0.004650
    18  C   -0.000000   0.000000   0.000000  -0.000000  -0.000022   0.000310
    19  C   -0.000000   0.000000  -0.000000  -0.000002   0.005801   0.006103
    20  C   -0.000000  -0.000000  -0.000040   0.000798   0.006064   0.006173
    21  C    0.000000   0.000000  -0.000332   0.003824   0.000632   0.000063
    22  C    0.000000  -0.000000   0.000000  -0.000126   0.000008   0.000002
    23  O   -0.000000  -0.000000   0.000000   0.000000   0.000000  -0.000009
    24  C    0.000000  -0.000000   0.000012   0.000020   0.000000  -0.000000
    25  C    0.000000   0.000000   0.000000  -0.000000   0.000000   0.000000
    26  C    0.000000  -0.000000  -0.000000  -0.000000  -0.000000   0.000000
    27  C   -0.000000   0.000000  -0.000000   0.000000   0.000000  -0.000000
    28  C    0.000002   0.000000   0.000025   0.000013  -0.000000  -0.000000
    29  C   -0.000000   0.000001  -0.000001   0.000005   0.000000   0.000000
    30  H   -0.004267  -0.000164   0.000015  -0.000000  -0.000000   0.000000
    31  H    0.576233  -0.004821  -0.000160   0.000001  -0.000000  -0.000000
    32  H   -0.004821   0.576438  -0.005294   0.000007   0.000000  -0.000000
    33  H   -0.000160  -0.005294   0.553551  -0.004099   0.000015  -0.000000
    34  H    0.000001   0.000007  -0.004099   0.551739  -0.005116   0.000000
    35  H   -0.000000   0.000000   0.000015  -0.005116   0.579288  -0.000001
    36  H   -0.000000  -0.000000  -0.000000   0.000000  -0.000001   0.587330
    37  H    0.000000   0.000000   0.000000   0.000000   0.000000  -0.005445
    38  H    0.000000  -0.000000  -0.000000  -0.000000  -0.000000  -0.000173
    39  H    0.000000  -0.000000  -0.000000   0.000000   0.000005   0.000017
    40  H   -0.000000   0.000000  -0.000000   0.000007   0.002894  -0.000168
    41  H    0.000000  -0.000000  -0.000000   0.000017  -0.000155   0.002272
    42  H    0.000000  -0.000000  -0.000000  -0.000000   0.000000   0.000000
    43  H   -0.000000   0.000000  -0.000000  -0.000000   0.000000   0.000000
    44  H   -0.000000  -0.000000  -0.000000  -0.000000  -0.000000   0.000000
              37         38         39         40         41         42
     1  O    0.000000   0.000000   0.000000   0.000000   0.000000  -0.000000
     2  C   -0.000000   0.000000   0.000000   0.000000  -0.000000   0.000007
     3  C   -0.000000  -0.000000   0.000000  -0.000000  -0.000000   0.000000
     4  C    0.000000   0.000000  -0.000000   0.000000   0.000000   0.000000
     5  C   -0.000000  -0.000000  -0.000000  -0.000000   0.000000  -0.000000
     6  C    0.000000   0.000000  -0.000000  -0.000000  -0.000000   0.000000
     7  C   -0.000000   0.000000  -0.000000   0.000000  -0.000000  -0.000000
     8  C   -0.000000  -0.000000   0.000000   0.000000   0.000001   0.000002
     9  N   -0.000000  -0.000000  -0.000000  -0.000000  -0.000076  -0.000075
    10  C   -0.000000  -0.000000  -0.000000  -0.000016   0.005386  -0.000044
    11  C   -0.000000   0.000000  -0.000000   0.000023  -0.000011   0.000000
    12  C    0.000001  -0.000000  -0.000001   0.004946   0.005854   0.000000
    13  C   -0.000187   0.000004  -0.000187  -0.010414  -0.040644  -0.000000
    14  C    0.003394   0.000609   0.003394  -0.042599  -0.007299  -0.000000
    15  C   -0.038156   0.004767   0.000844   0.006131   0.004726   0.000000
    16  C    0.357708  -0.042779   0.004543   0.000310  -0.000042   0.000000
    17  C   -0.042694   0.359500  -0.042517   0.004726  -0.000003  -0.000000
    18  C    0.004542  -0.042978   0.357382  -0.043479  -0.000007  -0.000000
    19  C    0.000845   0.004823  -0.038767   0.350844  -0.000026   0.000000
    20  C   -0.000001  -0.000000   0.000001  -0.000046   0.347290  -0.000018
    21  C    0.000000   0.000000  -0.000000   0.000002  -0.045107   0.001082
    22  C   -0.000000  -0.000000   0.000000   0.000000  -0.009428  -0.009089
    23  O   -0.000000   0.000000  -0.000000  -0.000000   0.018885   0.016902
    24  C   -0.000000   0.000000  -0.000000  -0.000000   0.001127  -0.042919
    25  C    0.000000   0.000000   0.000000   0.000000  -0.000019   0.355254
    26  C    0.000000  -0.000000  -0.000000   0.000000  -0.000000  -0.041443
    27  C   -0.000000  -0.000000   0.000000  -0.000000   0.000000   0.004020
    28  C   -0.000000  -0.000000  -0.000000  -0.000000   0.000001   0.000456
    29  C    0.000000   0.000000  -0.000000   0.000000  -0.000040   0.005381
    30  H    0.000000   0.000000  -0.000000   0.000000  -0.000000   0.000000
    31  H    0.000000   0.000000   0.000000  -0.000000   0.000000   0.000000
    32  H    0.000000  -0.000000  -0.000000   0.000000  -0.000000  -0.000000
    33  H    0.000000  -0.000000  -0.000000  -0.000000  -0.000000  -0.000000
    34  H    0.000000  -0.000000   0.000000   0.000007   0.000017  -0.000000
    35  H    0.000000  -0.000000   0.000005   0.002894  -0.000155   0.000000
    36  H   -0.005445  -0.000173   0.000017  -0.000168   0.002272   0.000000
    37  H    0.590068  -0.005439  -0.000186   0.000017   0.000004   0.000000
    38  H   -0.005439   0.594081  -0.005453  -0.000177  -0.000000  -0.000000
    39  H   -0.000186  -0.005453   0.593225  -0.005577   0.000000   0.000000
    40  H    0.000017  -0.000177  -0.005577   0.600772  -0.000000   0.000000
    41  H    0.000004  -0.000000   0.000000  -0.000000   0.544880  -0.000012
    42  H    0.000000  -0.000000   0.000000   0.000000  -0.000012   0.542311
    43  H    0.000000   0.000000   0.000000   0.000000  -0.000000  -0.003820
    44  H   -0.000000   0.000000   0.000000  -0.000000   0.000000  -0.000142
              43         44
     1  O    0.000001   0.016894
     2  C   -0.000145  -0.009004
     3  C    0.000002   0.001056
     4  C   -0.000000  -0.000017
     5  C    0.000000  -0.000000
     6  C    0.000000   0.000000
     7  C    0.000000   0.000000
     8  C   -0.000000  -0.000045
     9  N    0.000007  -0.000075
    10  C    0.000000   0.000002
    11  C    0.000000  -0.000000
    12  C    0.000000   0.000000
    13  C    0.000000  -0.000000
    14  C   -0.000000  -0.000000
    15  C   -0.000000   0.000000
    16  C   -0.000000   0.000000
    17  C    0.000000  -0.000000
    18  C   -0.000000  -0.000000
    19  C    0.000000   0.000000
    20  C   -0.000000   0.000000
    21  C    0.000002   0.000000
    22  C   -0.000147   0.000007
    23  O    0.000001  -0.000000
    24  C    0.002575   0.000464
    25  C   -0.037017   0.004008
    26  C    0.362326  -0.041371
    27  C   -0.037089   0.355154
    28  C    0.002588  -0.042885
    29  C    0.001343   0.005386
    30  H   -0.000000  -0.000011
    31  H   -0.000000  -0.000000
    32  H    0.000000  -0.000000
    33  H   -0.000000  -0.000000
    34  H   -0.000000  -0.000000
    35  H    0.000000  -0.000000
    36  H    0.000000   0.000000
    37  H    0.000000  -0.000000
    38  H    0.000000   0.000000
    39  H    0.000000   0.000000
    40  H    0.000000  -0.000000
    41  H   -0.000000   0.000000
    42  H   -0.003820  -0.000142
    43  H    0.567212  -0.003817
    44  H   -0.003817   0.542267
 Mulliken charges:
               1
     1  O   -0.505172
     2  C    0.380891
     3  C    0.034843
     4  C   -0.176752
     5  C   -0.129684
     6  C   -0.133004
     7  C   -0.179473
     8  C    0.283968
     9  N   -0.770289
    10  C    0.284647
    11  C   -0.182923
    12  C   -0.179004
    13  C    0.099799
    14  C    0.092104
    15  C   -0.171396
    16  C   -0.134207
    17  C   -0.125060
    18  C   -0.133775
    19  C   -0.175217
    20  C   -0.246836
    21  C    0.040359
    22  C    0.382612
    23  O   -0.505012
    24  C    0.048527
    25  C   -0.173970
    26  C   -0.134199
    27  C   -0.174195
    28  C    0.049337
    29  C    0.261619
    30  H    0.171033
    31  H    0.142365
    32  H    0.144042
    33  H    0.166630
    34  H    0.165960
    35  H    0.143864
    36  H    0.141068
    37  H    0.135528
    38  H    0.133216
    39  H    0.133276
    40  H    0.131804
    41  H    0.172426
    42  H    0.172146
    43  H    0.145977
    44  H    0.172127
 Sum of Mulliken charges =  -0.00000
 Mulliken charges with hydrogens summed into heavy atoms:
               1
     1  O   -0.505172
     2  C    0.380891
     3  C    0.034843
     4  C   -0.005719
     5  C    0.012681
     6  C    0.011038
     7  C   -0.012843
     8  C    0.283968
     9  N   -0.770289
    10  C    0.284647
    11  C   -0.016964
    12  C   -0.035141
    13  C    0.099799
    14  C    0.092104
    15  C   -0.030328
    16  C    0.001322
    17  C    0.008156
    18  C   -0.000499
    19  C   -0.043412
    20  C   -0.074410
    21  C    0.040359
    22  C    0.382612
    23  O   -0.505012
    24  C    0.048527
    25  C   -0.001824
    26  C    0.011778
    27  C   -0.002068
    28  C    0.049337
    29  C    0.261619
 Electronic spatial extent (au):  <R**2>=          12879.9188
 Charge=             -0.0000 electrons
 Dipole moment (field-independent basis, Debye):
    X=             -2.1560    Y=             -3.3072    Z=             -0.3575  Tot=              3.9641
 Quadrupole moment (field-independent basis, Debye-Ang):
   XX=           -162.2570   YY=           -152.1611   ZZ=           -164.6653
   XY=              5.2552   XZ=             -7.2570   YZ=              2.6202
 Traceless Quadrupole moment (field-independent basis, Debye-Ang):
   XX=             -2.5625   YY=              7.5334   ZZ=             -4.9708
   XY=              5.2552   XZ=             -7.2570   YZ=              2.6202
 Octapole moment (field-independent basis, Debye-Ang**2):
  XXX=           -200.5760  YYY=            -33.9397  ZZZ=              0.3040  XYY=             78.5949
  XXY=              1.6811  XXZ=            -30.9022  XZZ=            -18.4913  YZZ=             -5.8543
  YYZ=              5.7003  XYZ=             27.6621
 Hexadecapole moment (field-independent basis, Debye-Ang**3):
 XXXX=         -12767.8060 YYYY=          -3600.6249 ZZZZ=           -562.5090 XXXY=              6.4503
 XXXZ=           -178.1272 YYYX=             28.9958 YYYZ=            103.1127 ZZZX=             15.7742
 ZZZY=            -24.6127 XXYY=          -2616.7047 XXZZ=          -2329.7331 YYZZ=           -750.6594
 XXYZ=            -97.2667 YYXZ=            -36.3598 ZZXY=              9.5558
 N-N= 2.439075022252D+03 E-N=-7.674608480155D+03  KE= 1.193641348440D+03
 1\1\GINC-CNODE12\SP\RB3LYP TD-FC\6-31G(d)\C26H15N1O2\JUNHKIM\19-Jan-20
 26\0\\# b3lyp/6-31g* TD=(Nstates=1,50-50) Geom=Check Guess=Read SCF=XQ
 C\\TD-DFT calculation\\0,1\O,0,-5.4890525198,-0.5939068538,1.544510557
 4\C,0,-4.4032546848,-0.3921545027,1.0042622386\C,0,-3.8031275433,0.953
 5962681,0.8947914642\C,0,-4.5947482348,2.0724667133,1.199704961\C,0,-4
 .1323698761,3.357772721,0.9702289161\C,0,-2.8688807794,3.5293591686,0.
 3892862739\C,0,-2.0619963052,2.4375468767,0.094363997\C,0,-2.498301665
 7,1.1311854111,0.3854716726\N,0,-1.6896751185,-0.0027683183,0.11427183
 99\C,0,-0.2738254094,0.0596041176,0.0630595094\C,0,0.4567528339,1.0300
 451157,0.7731339117\C,0,1.8402589407,1.0750262475,0.6868121003\C,0,2.5
 714771941,0.1574058114,-0.0950948356\C,0,4.0501671829,0.2312338667,-0.
 1973891061\C,0,4.7019851656,-0.0932515063,-1.3992631986\C,0,6.09055305
 55,-0.0272149985,-1.5003432314\C,0,6.8578780759,0.3666536198,-0.402534
 8084\C,0,6.2240590117,0.6918891741,0.7980498593\C,0,4.8354605968,0.624
 4944184,0.8995880201\C,0,1.8437395614,-0.8410462646,-0.741073713\C,0,0
 .4469015227,-0.9154964771,-0.6587337144\C,0,-0.2340199867,-2.096087891
 8,-1.2317022585\O,0,0.3381736832,-2.9063454456,-1.957840854\C,0,-1.626
 6566234,-2.2762731678,-0.7774252167\C,0,-2.2714045851,-3.4970247404,-1
 .0065808102\C,0,-3.5737429239,-3.7186836919,-0.5683933803\C,0,-4.24646
 1719,-2.6985376209,0.097907337\C,0,-3.6422843418,-1.4561337126,0.32091
 73644\C,0,-2.3146306558,-1.2347898203,-0.1125395934\H,0,-5.5865896926,
 1.8815519099,1.5967012888\H,0,-4.7511142019,4.2184520753,1.2052791314\
 H,0,-2.511393071,4.5265457926,0.1475239755\H,0,-1.105014086,2.59711605
 33,-0.3857283939\H,0,-0.0551758965,1.7428831263,1.406854553\H,0,2.3678
 966035,1.8502589919,1.234717083\H,0,4.1128821053,-0.3781849938,-2.2664
 409082\H,0,6.5729185361,-0.276757461,-2.4416232398\H,0,7.9402861316,0.
 418761019,-0.4815754646\H,0,6.8122240399,0.9900055555,1.6619420228\H,0
 ,4.3575257435,0.8518681667,1.8485895698\H,0,2.3408189596,-1.6287128488
 ,-1.2978763398\H,0,-1.7103071878,-4.2600557764,-1.5369522244\H,0,-4.05
 80988526,-4.6743180603,-0.7437444126\H,0,-5.2598319827,-2.8279720678,0
 .4648860567\\Version=ES64L-G16RevB.01\State=1-A\HF=-1205.0527882\RMSD=
 2.119e-09\PG=C01 [X(C26H15N1O2)]\\@


    WHAT WE HAVE LEARNED
 IS LIKE A HANDFUL OF EARTH;
  WHAT WE HAVE YET TO LEARN
   IS LIKE THE WHOLE WORLD.

         -- AVVAYIAR
 Job cpu time:       0 days  0 hours 58 minutes 51.9 seconds.
 Elapsed time:       0 days  0 hours  3 minutes 40.9 seconds.
 File lengths (MBytes):  RWF=   1076 Int=      0 D2E=      0 Chk=     67 Scr=      2
 Normal termination of Gaussian 16 at Mon Jan 19 14:20:18 2026.
